
                                 *****************
                                 * O   R   C   A *
                                 *****************

                                            #,                                       
                                            ###                                      
                                            ####                                     
                                            #####                                    
                                            ######                                   
                                           ########,                                 
                                     ,,################,,,,,                         
                               ,,#################################,,                 
                          ,,##########################################,,             
                       ,#########################################, ''#####,          
                    ,#############################################,,   '####,        
                  ,##################################################,,,,####,       
                ,###########''''           ''''###############################       
              ,#####''   ,,,,##########,,,,          '''####'''          '####       
            ,##' ,,,,###########################,,,                        '##       
           ' ,,###''''                  '''############,,,                           
         ,,##''                                '''############,,,,        ,,,,,,###''
      ,#''                                            '''#######################'''  
     '                                                          ''''####''''         
             ,#######,   #######,   ,#######,      ##                                
            ,#'     '#,  ##    ##  ,#'     '#,    #''#        ,####,   ,####,        
            ##       ##  ##   ,#'  ##            #'  '#       #'       #'  '#        
            ##       ##  #######   ##           ,######,      #####,   #    #        
            '#,     ,#'  ##    ##  '#,     ,#' ,#      #,     #,   #   #,  ,#        
             '#######'   ##     ##  '#######'  #'      '#     '####' # '####'        



                #########################################################
                #                        -***-                          #
                #          Department of theory and spectroscopy        #
                #                                                       #
                #                      Frank Neese                      #
                #                                                       #
                #     Directorship, Architecture, Infrastructure        #
                #                    SHARK, DRIVERS                     #
                #        Core code/Algorithms in most modules           #
                #                                                       #
                #        Max Planck Institute fuer Kohlenforschung      #
                #                Kaiser Wilhelm Platz 1                 #
                #                 D-45470 Muelheim/Ruhr                 #
                #                      Germany                          #
                #                                                       #
                #                  All rights reserved                  #
                #                        -***-                          #
                #########################################################


                         Program Version 6.0.0  -   RELEASE  -


 With contributions from (in alphabetic order):
   Daniel Aravena         : Magnetic Suceptibility
   Michael Atanasov       : Ab Initio Ligand Field Theory (pilot matlab implementation)
   Alexander A. Auer      : GIAO ZORA, VPT2 properties, NMR spectrum
   Ute Becker             : All parallelization in ORCA, NUMFREQ, NUMCALC
   Giovanni Bistoni       : ED, misc. LED, open-shell LED, HFLD
   Martin Brehm           : Molecular dynamics
   Dmytro Bykov           : pre 5.0 version of the SCF Hessian
   Marcos Casanova-Páez   : Triplet and SCS-CIS(D). UHF-(DLPNO)-IP/EA/STEOM-CCSD. UHF-CVS-IP/STEOM-CCSD
   Vijay G. Chilkuri      : MRCI spin determinant printing, contributions to CSF-ICE
   Pauline Colinet        : FMM embedding
   Dipayan Datta          : RHF DLPNO-CCSD density
   Achintya Kumar Dutta   : EOM-CC, STEOM-CC
   Nicolas Foglia         : Exact transition moments, OPA infrastructure, MCD improvements
   Dmitry Ganyushin       : Spin-Orbit,Spin-Spin,Magnetic field MRCI
   Miquel Garcia          : C-PCM and meta-GGA Hessian, CCSD/C-PCM, Gaussian charge scheme
   Tiago L. C. Gouveia    : GS-ROHF, GS-ROCIS
   Yang Guo               : DLPNO-NEVPT2, F12-NEVPT2, CIM, IAO-localization
   Andreas Hansen         : Spin unrestricted coupled pair/coupled cluster methods
   Ingolf Harden          : AUTO-CI MPn and infrastructure 
   Benjamin Helmich-Paris : MC-RPA, TRAH-(SCF,CASSCF), AVAS, COSX integrals, SCF dyn. polar.
   Lee Huntington         : MR-EOM, pCC
   Robert Izsak           : Overlap fitted RIJCOSX, COSX-SCS-MP3, EOM
   Riya Kayal             : Wick's Theorem for AUTO-CI, AUTO-CI UHF-CCSDT
   Emily Kempfer          : AUTO-CI, RHF CISDT and CCSDT
   Christian Kollmar      : KDIIS, OOCD, Brueckner-CCSD(T), CCSD density, CASPT2, CASPT2-K, improved NEVPT2
   Axel Koslowski         : Symmetry handling
   Simone Kossmann        : Meta GGA functionals, TD-DFT gradient, OOMP2, (MP2 Hessian; deprecated post 5.0)
   Lucas Lang             : DCDCAS
   Marvin Lechner         : AUTO-CI (C++ implementation), FIC-MRCC
   Spencer Leger          : CASSCF response
   Dagmar Lenk            : GEPOL surface, SMD, ORCA-2-JSON
   Dimitrios Liakos       : Extrapolation schemes; Compound Job, initial MDCI parallelization
   Dimitrios Manganas     : Further ROCIS development; embedding schemes. LFT, Crystal Embedding
   Dimitrios Pantazis     : SARC Basis sets
   Anastasios Papadopoulos: AUTO-CI, single reference methods and gradients
   Taras Petrenko         : pre 6.0 DFT Hessian and TD-DFT gradient, (ASA, deprecated), ECA, 1-Electron XAS/XES, NRVS
   Peter Pinski           : DLPNO-MP2, DLPNO-MP2 Gradient
   Christoph Reimann      : Effective Core Potentials
   Marius Retegan         : Local ZFS, SOC
   Christoph Riplinger    : Optimizer, TS searches, QM/MM, DLPNO-CCSD(T), (RO)-DLPNO pert. Triples
   Michael Roemelt        : Original ROCIS implementation
   Masaaki Saitow         : Open-shell DLPNO-CCSD energy and density
   Barbara Sandhoefer     : DKH picture change effects
   Kantharuban Sivalingam : CASSCF convergence/infrastructure, NEVPT2 and variants, FIC-MRCI
   Bernardo de Souza      : ESD, SOC TD-DFT
   Georgi Stoychev        : AutoAux, RI-MP2 NMR, DLPNO-MP2 response, X2C
   Van Anh Tran           : RI-MP2 g-tensors
   Willem Van den Heuvel  : Paramagnetic NMR
   Zikuan Wang            : NOTCH, Electric field optimization 
   Frank Wennmohs         : Technical directorship and infrastructure
   Hang Xu                : AUTO-CI-Response properties 


 We gratefully acknowledge several colleagues who have allowed us to
 interface, adapt or use parts of their codes:
   Stefan Grimme, W. Hujo, H. Kruse, P. Pracht,  : VdW corrections, initial TS optimization,
                  C. Bannwarth, S. Ehlert,         DFT functionals, gCP, sTDA/sTD-DF
                  L. Wittmann, M. Mueller
   Ed Valeev, F. Pavosevic, A. Kumar             : LibInt (2-el integral package), F12 methods
   Garnet Chan, S. Sharma, J. Yang, R. Olivares  : DMRG
   Ulf Ekstrom                                   : XCFun DFT Library
   Mihaly Kallay                                 : mrcc  (arbitrary order and MRCC methods)
   Frank Weinhold                                : gennbo (NPA and NBO analysis)
   Simon Mueller                                 : openCOSMO-RS
   Christopher J. Cramer and Donald G. Truhlar   : smd solvation model
   Lars Goerigk                                  : TD-DFT with DH, B97 family of functionals
   V. Asgeirsson, H. Jonsson                     : NEB implementation
   FAccTs GmbH                                   : IRC, NEB, NEB-TS, DLPNO-Multilevel, CI-OPT
                                                   MM, QMMM, 2- and 3-layer-ONIOM, Crystal-QMMM,
                                                   LR-CPCM, SF, NACMEs, symmetry and pop. for TD-DFT,
                                                   nearIR, NL-DFT gradient (VV10), updates on ESD,
                                                   ML-optimized integration grids, MBIS, APM,
                                                   GOAT, DOCKER, SOLVATOR, interface openCOSMO-RS
   S Lehtola, MJT Oliveira, MAL Marques          : LibXC Library
   Liviu Ungur et al                             : ANISO software


 Your calculation uses the libint2 library for the computation of 2-el integrals
 For citations please refer to: http://libint.valeyev.net

 Your ORCA version has been built with support for libXC version: 6.2.2
 For citations please refer to: https://libxc.gitlab.io

 This ORCA versions uses:
   CBLAS   interface :  Fast vector & matrix operations
   LAPACKE interface :  Fast linear algebra routines
   SCALAPACK package :  Parallel linear algebra routines
   Shared memory     :  Shared parallel matrices
   BLAS/LAPACK       :  OpenBLAS 0.3.27  USE64BITINT DYNAMIC_ARCH NO_AFFINITY Haswell SINGLE_THREADED
        Core in use  :  Haswell
   Copyright (c) 2011-2014, The OpenBLAS Project


================================================================================

----- Orbital basis set information -----
Your calculation utilizes the basis: 6-311G(d,p)
   H, Li - Ne  : R. Krishnan, J. S. Binkley, R. Seeger and J. A. Pople, J. Chem. Phys. 72, 650 (1980).
   Na - Ar     : A. D. McLean and G. S. Chandler J. Chem. Phys. 72, 5639, (1980).
   K  - Ca     : J.-P. Blaudeau, M. P. McGrath, L. A. Curtiss and L. Radom, J. Chem. Phys. 107, 5016 (1997).
   Ga - Kr     : L. A. Curtiss, M. P. McGrath, J.-P. Blandeau, N. E. Davis, R. C. Binning and L. Radom, J. Chem. Phys. 103, 6104 (1995).
   Pol./Diff.
   H, Li - Cl  : T. Clark, J. Chandrasekhar and P. v. R. Schleyer, J. Comp. Chem. 4, 294 (1983).
   H - Ne      : M. J. Frisch, J. A. Pople and J. S. Binkley, J. Chem. Phys. 80, 3265 (1984).

================================================================================
                                        WARNINGS
                       Please study these warnings very carefully!
================================================================================


WARNING: Geometry Optimization
  ===> : Switching off AutoStart
         For restart on a previous wavefunction, please use MOREAD

================================================================================
                                       INPUT FILE
================================================================================
NAME = acetate.inp
|  1> ! HF 6-311g(d,p) opt freq
|  2> 
|  3> * xyz 0 1
|  4> C         -0.81589       -0.51571       -0.02512
|  5> C          0.30690        0.49327       -0.06114
|  6> H         -0.42809       -1.56713       -0.28060
|  7> H         -1.26914       -0.51520        1.06962
|  8> H         -1.64631       -0.14518       -0.75104
|  9> O          0.16587        1.68279       -0.21470
| 10> O          1.51380       -0.07303        0.21899
| 11> H          2.16801        0.64625        0.13143
| 12> *
| 13> 
| 14> 
| 15> 
| 16>                          ****END OF INPUT****
================================================================================

                       *****************************
                       * Geometry Optimization Run *
                       *****************************

Geometry optimization settings:
Update method            Update   .... BFGS
Choice of coordinates    CoordSys .... (2022) Redundant Internals
Initial Hessian          InHess   .... Almloef's Model
Max. no of cycles        MaxIter  .... 50

Convergence Tolerances:
Energy Change            TolE     ....  5.0000e-06 Eh
Max. Gradient            TolMAXG  ....  3.0000e-04 Eh/bohr
RMS Gradient             TolRMSG  ....  1.0000e-04 Eh/bohr
Max. Displacement        TolMAXD  ....  4.0000e-03 bohr
RMS Displacement         TolRMSD  ....  2.0000e-03 bohr
Strict Convergence                .... False

------------------------------------------------------------------------------
                        ORCA OPTIMIZATION COORDINATE SETUP
------------------------------------------------------------------------------

The optimization will be done in redundant internal coordinates (2022)
Making redundant internal coordinates   ...  (2022 redundants) done
Evaluating the initial hessian          ...  (Almloef) done
Evaluating the coordinates              ...  done
Calculating the B-matrix                .... done
Calculating the G-matrix                .... done
Diagonalizing the G-matrix              .... done
The first mode is                       ....    6
The number of degrees of freedom        ....   18

    -----------------------------------------------------------------
                    Redundant Internal Coordinates


    -----------------------------------------------------------------
         Definition                    Initial Value    Approx d2E/dq
    -----------------------------------------------------------------
      1. B(C   1,C   0)                  1.5100         0.402107   
      2. B(H   2,C   0)                  1.1494         0.289493   
      3. B(H   3,C   0)                  1.1849         0.254145   
      4. B(H   4,C   0)                  1.1636         0.274839   
      5. B(O   5,C   1)                  1.2077         1.093445   
      6. B(O   6,C   1)                  1.3623         0.619611   
      7. B(H   7,O   6)                  0.9762         0.489864   
      8. A(C   1,C   0,H   2)          110.7975         0.316739   
      9. A(C   1,C   0,H   4)          107.6391         0.314077   
     10. A(H   2,C   0,H   4)          113.1676         0.269715   
     11. A(C   1,C   0,H   3)          107.8304         0.310125   
     12. A(H   3,C   0,H   4)          107.6548         0.264466   
     13. A(H   2,C   0,H   3)          109.5617         0.266541   
     14. A(C   0,C   1,O   5)          125.0560         0.441794   
     15. A(O   5,C   1,O   6)          122.6204         0.474864   
     16. A(C   0,C   1,O   6)          112.0920         0.399234   
     17. A(C   1,O   6,H   7)          105.6035         0.366309   
     18. D(O   5,C   1,C   0,H   3)    -82.3686         0.011994   
     19. D(O   5,C   1,C   0,H   2)    157.7373         0.011994   
     20. D(O   6,C   1,C   0,H   2)    -27.6896         0.011994   
     21. D(O   6,C   1,C   0,H   3)     92.2045         0.011994   
     22. D(O   5,C   1,C   0,H   4)     33.5170         0.011994   
     23. D(H   7,O   6,C   1,O   5)     -7.7161         0.028164   
     24. D(H   7,O   6,C   1,C   0)    177.5578         0.028164   
    -----------------------------------------------------------------

Number of atoms                         .... 8
Number of degrees of freedom            .... 24


         *************************************************************
         *                GEOMETRY OPTIMIZATION CYCLE   1            *
         *************************************************************
---------------------------------
CARTESIAN COORDINATES (ANGSTROEM)
---------------------------------
  C     -0.815890   -0.515710   -0.025120
  C      0.306900    0.493270   -0.061140
  H     -0.428090   -1.567130   -0.280600
  H     -1.269140   -0.515200    1.069620
  H     -1.646310   -0.145180   -0.751040
  O      0.165870    1.682790   -0.214700
  O      1.513800   -0.073030    0.218990
  H      2.168010    0.646250    0.131430

----------------------------
CARTESIAN COORDINATES (A.U.)
----------------------------
  NO LB      ZA    FRAG     MASS         X           Y           Z
   0 C     6.0000    0    12.011   -1.541809   -0.974551   -0.047470
   1 C     6.0000    0    12.011    0.579957    0.932145   -0.115538
   2 H     1.0000    0     1.008   -0.808973   -2.961447   -0.530257
   3 H     1.0000    0     1.008   -2.398327   -0.973587    2.021289
   4 H     1.0000    0     1.008   -3.111075   -0.274350   -1.419260
   5 O     8.0000    0    15.999    0.313449    3.180012   -0.405724
   6 O     8.0000    0    15.999    2.860667   -0.138007    0.413831
   7 H     1.0000    0     1.008    4.096945    1.221236    0.248367

--------------------------------
INTERNAL COORDINATES (ANGSTROEM)
--------------------------------
 C      0   0   0     0.000000000000     0.00000000     0.00000000
 C      1   0   0     1.509965385332     0.00000000     0.00000000
 H      1   2   0     1.149409799332   110.79748425     0.00000000
 H      1   2   3     1.184859270209   107.83041301   119.89409690
 H      1   2   3     1.163550473207   107.63908507   235.77974191
 O      2   1   3     1.207653909405   125.05603886   157.73730030
 O      2   1   3     1.362268738869   112.09201308   332.31039900
 H      7   2   1     0.976228045131   105.60345240   177.55784304

---------------------------
INTERNAL COORDINATES (A.U.)
---------------------------
 C      0   0   0     0.000000000000     0.00000000     0.00000000
 C      1   0   0     2.853421049978     0.00000000     0.00000000
 H      1   2   0     2.172069736383   110.79748425     0.00000000
 H      1   2   3     2.239059527933   107.83041301   119.89409690
 H      1   2   3     2.198791737356   107.63908507   235.77974191
 O      2   1   3     2.282135153334   125.05603886   157.73730030
 O      2   1   3     2.574314837265   112.09201308   332.31039900
 H      7   2   1     1.844803649551   105.60345240   177.55784304

---------------------
BASIS SET INFORMATION
---------------------
There are 3 groups of distinct atoms

 Group   1 Type C   : 11s5p1d contracted to 4s3p1d pattern {6311/311/1}
 Group   2 Type H   : 5s1p contracted to 3s1p pattern {311/1}
 Group   3 Type O   : 11s5p1d contracted to 4s3p1d pattern {6311/311/1}

Atom   0C    basis set group =>   1
Atom   1C    basis set group =>   1
Atom   2H    basis set group =>   2
Atom   3H    basis set group =>   2
Atom   4H    basis set group =>   2
Atom   5O    basis set group =>   3
Atom   6O    basis set group =>   3
Atom   7H    basis set group =>   2
------------------------------------------------------------------------------
                             ORCA STARTUP CALCULATIONS
------------------------------------------------------------------------------
------------------------------------------------------------------------------
                   ___                                                        
                  /   \      - P O W E R E D   B Y -                         
                 /     \                                                     
                 |  |  |   _    _      __       _____    __    __             
                 |  |  |  | |  | |    /  \     |  _  \  |  |  /  |          
                  \  \/   | |  | |   /    \    | | | |  |  | /  /          
                 / \  \   | |__| |  /  /\  \   | |_| |  |  |/  /          
                |  |  |   |  __  | /  /__\  \  |    /   |      \           
                |  |  |   | |  | | |   __   |  |    \   |  |\   \          
                \     /   | |  | | |  |  |  |  | |\  \  |  | \   \       
                 \___/    |_|  |_| |__|  |__|  |_| \__\ |__|  \__/        
                                                                              
                      - O R C A' S   B I G   F R I E N D -                    
                                      &                                       
                       - I N T E G R A L  F E E D E R -                       
                                                                              
 v1 FN, 2020, v2 2021, v3 2022-2024                                           
------------------------------------------------------------------------------


----------------------
SHARK INTEGRAL PACKAGE
----------------------

Number of atoms                             ...      8
Number of basis functions                   ...     96
Number of shells                            ...     48
Maximum angular momentum                    ...      2
Integral batch strategy                     ... SHARK/LIBINT Hybrid
RI-J (if used) integral strategy            ... SPLIT-RIJ (Revised 2003 algorithm where possible)
Printlevel                                  ...      1
Contraction scheme used                     ... SEGMENTED contraction
Prescreening option                         ... SCHWARTZ
   Thresh                                   ... 2.500e-11
   Tcut                                     ... 2.500e-12
   Tpresel                                  ... 2.500e-12 
Coulomb Range Separation                    ... NOT USED
Exchange Range Separation                   ... NOT USED
Multipole approximations                    ... NOT USED
Finite Nucleus Model                        ... NOT USED
CABS basis                                  ... NOT available
Auxiliary Coulomb fitting basis             ... NOT available
Auxiliary J/K fitting basis                 ... NOT available
Auxiliary Correlation fitting basis         ... NOT available
Auxiliary 'external' fitting basis          ... NOT available

Checking pre-screening integrals            ... done (  0.0 sec) Dimension = 48
Check shell pair data                       ... done (  0.0 sec)
Shell pair information
Shell pair cut-off parameter TPreSel        ...   2.5e-12
Total number of shell pairs                 ...      1176
Shell pairs after pre-screening             ...      1146
Total number of primitive shell pairs       ...      4374
Primitive shell pairs kept                  ...      3348
          la=0 lb=0:    382 shell pairs
          la=1 lb=0:    442 shell pairs
          la=1 lb=1:    136 shell pairs
          la=2 lb=0:    112 shell pairs
          la=2 lb=1:     64 shell pairs
          la=2 lb=2:     10 shell pairs

Calculating one electron integrals          ... done (  0.0 sec)
Calculating Nuclear repulsion               ... done (  0.0 sec) ENN=    119.897639148008 Eh

Diagonalization of the overlap matrix:
Smallest eigenvalue                        ... 3.352e-03
Time for diagonalization                   ...    0.001 sec
Threshold for overlap eigenvalues          ... 1.000e-07
Number of eigenvalues below threshold      ... 0
Time for construction of square roots      ...    0.000 sec
Total time needed                          ...    0.001 sec

-------------------
DFT GRID GENERATION
-------------------

General Integration Accuracy     IntAcc      ... 4.388
Radial Grid Type                 RadialGrid  ... OptM3 with GC (2021)
Angular Grid (max. ang.)         AngularGrid ... 4 (Lebedev-302)
Angular grid pruning method      GridPruning ... 4 (adaptive)
Weight generation scheme         WeightScheme... mBecke (2022)
Basis function cutoff            BFCut       ... 1.0000e-11
Integration weight cutoff        WCut        ... 1.0000e-14
Partially contracted basis set               ... off
Rotationally invariant grid construction     ... off
Angular grids for H and He will be reduced by one unit

Total number of grid points                  ...    37431
Total number of batches                      ...      590
Average number of points per batch           ...       63
Average number of grid points per atom       ...     4679
Initializing property integral containers    ... done (  0.0 sec)

SHARK setup successfully completed in   0.2 seconds

Maximum memory used throughout the entire STARTUP-calculation: 14.6 MB
-------------------------------------------------------------------------------
                                 ORCA GUESS
                   Start orbitals & Density for SCF / CASSCF
-------------------------------------------------------------------------------

------------
SCF SETTINGS
------------
Hamiltonian:
 Ab initio Hamiltonian  Method          .... Hartree-Fock(GTOs)


General Settings:
 Integral files         IntName         .... acetate
 Hartree-Fock type      HFTyp           .... RHF
 Total Charge           Charge          ....    0
 Multiplicity           Mult            ....    1
 Number of Electrons    NEL             ....   32
 Basis Dimension        Dim             ....   96
 Nuclear Repulsion      ENuc            ....    119.8976391480 Eh

Convergence Acceleration:
 AO-DIIS                CNVDIIS         .... on
   Start iteration      DIISMaxIt       ....    12
   Startup error        DIISStart       ....  0.200000
   # of expansion vecs  DIISMaxEq       ....     5
   Bias factor          DIISBfac        ....   1.050
   Max. coefficient     DIISMaxC        ....  10.000
 MO-DIIS                CNVKDIIS        .... off
 Trust-Rad. Augm. Hess. CNVTRAH         .... auto
   Auto Start mean grad. ratio tolernc. ....  1.125000
   Auto Start start iteration           ....    50
   Auto Start num. interpolation iter.  ....    10
   Max. Number of Micro iterations      ....    24
   Max. Number of Macro iterations      .... Maxiter - #DIIS iter
   Number of Davidson start vectors     ....     2
   Converg. threshold    (grad. norm)   ....   1.000e-05
   Grad. Scal. Fac. for Micro threshold ....   0.100
   Minimum threshold for Micro iter.    ....   1.000e-02
   NR start threshold (gradient norm)   ....   1.000e-04
   Initial trust radius                 ....   0.400
   Minimum AH scaling param. (alpha)    ....   1.000
   Maximum AH scaling param. (alpha)    .... 1000.000
   Quad. conv. algorithm                .... NR
   White noise on init. David. guess    .... on
   Maximum white noise                  ....   0.010
   Pseudo random numbers                .... off
   Inactive MOs                         .... canonical
   Orbital update algorithm             .... Taylor
   Preconditioner                       .... Diag
   Full preconditioner red. dimension   ....   250
 SOSCF                  CNVSOSCF        .... on
   Start iteration      SOSCFMaxIt      ....   150
   Startup grad/error   SOSCFStart      ....  0.003300
   Hessian update       SOSCFHessUp     .... L-BFGS
 Level Shifting         CNVShift        .... on
   Level shift para.    LevelShift      ....    0.2500
   Turn off err/grad.   ShiftErr        ....    0.0010
 Zerner damping         CNVZerner       .... off
 Static damping         CNVDamp         .... on
   Fraction old density DampFac         ....    0.7000
   Max. Damping (<1)    DampMax         ....    0.9800
   Min. Damping (>=0)   DampMin         ....    0.0000
   Turn off err/grad.   DampErr         ....    0.1000

SCF Procedure:
 Maximum # iterations   MaxIter         ....   125
 SCF integral mode      SCFMode         .... Direct
   Integral package                     .... SHARK and LIBINT hybrid scheme
 Reset frequency        DirectResetFreq ....    20
 Integral Threshold     Thresh          ....  2.500e-11 Eh
 Primitive CutOff       TCut            ....  2.500e-12 Eh

Convergence Tolerance:
 Convergence Check Mode ConvCheckMode   .... Total+1el-Energy
 Convergence forced     ConvForced      .... 0
 Energy Change          TolE            ....  1.000e-08 Eh
 1-El. energy change                    ....  1.000e-05 Eh
 Orbital Gradient       TolG            ....  1.000e-05
 Orbital Rotation angle TolX            ....  1.000e-05
 DIIS Error             TolErr          ....  5.000e-07

------------------------------
INITIAL GUESS: MODEL POTENTIAL
------------------------------
Loading Hartree-Fock densities                     ... done
Calculating cut-offs                               ... done
Initializing the effective Hamiltonian             ... done
Setting up the integral package (SHARK)            ... done
Starting the Coulomb interaction                   ... done (   0.0 sec)
Making the grid                                    ... done (   0.0 sec)
Mapping shells                                     ... done
Starting the XC term evaluation                    ... done (   0.0 sec)
Transforming the Hamiltonian                       ... done (   0.0 sec)
Diagonalizing the Hamiltonian                      ... done (   0.0 sec)
Back transforming the eigenvectors                 ... done (   0.0 sec)
Now organizing SCF variables                       ... done
                      ------------------
                      INITIAL GUESS DONE (   0.1 sec)
                      ------------------
             **** ENERGY FILE WAS UPDATED (acetate.en.tmp) ****
Finished Guess after   0.1 sec
Maximum memory used throughout the entire GUESS-calculation: 7.2 MB

-------------------------------------------------------------------------------------------
                                      ORCA LEAN-SCF
                              memory conserving SCF solver
-------------------------------------------------------------------------------------------

----------------------------------------D-I-I-S--------------------------------------------
Iteration    Energy (Eh)           Delta-E    RMSDP     MaxDP     DIISErr   Damp  Time(sec)
-------------------------------------------------------------------------------------------
               ***  Starting incremental Fock matrix formation  ***
    1    -227.6572009729408421     0.00e+00  2.43e-03  4.80e-02  3.62e-01  0.700   0.4
    2    -227.7311111154168941    -7.39e-02  1.69e-03  3.21e-02  2.18e-01  0.700   0.4
                               ***Turning on AO-DIIS***
    3    -227.7735308045780300    -4.24e-02  7.54e-04  1.43e-02  1.23e-01  0.700   0.4
    4    -227.8002161713186240    -2.67e-02  5.16e-04  7.30e-03  8.84e-02  0.700   0.4
    5    -227.8183547361313970    -1.81e-02  1.31e-03  1.69e-02  6.50e-02  0.000   0.4
    6    -227.8604839406063149    -4.21e-02  2.23e-04  2.72e-03  5.67e-03  0.000   0.4
                              *** Initializing SOSCF ***
---------------------------------------S-O-S-C-F--------------------------------------
Iteration    Energy (Eh)           Delta-E    RMSDP     MaxDP     MaxGrad    Time(sec)
--------------------------------------------------------------------------------------
    7    -227.8606452339560917    -1.61e-04  1.46e-04  1.79e-03  2.35e-03     0.4
               *** Restarting incremental Fock matrix formation ***
    8    -227.8606948934624654    -4.97e-05  7.02e-05  8.42e-04  1.06e-03     0.4
    9    -227.8607070417780562    -1.21e-05  9.14e-05  1.29e-03  3.49e-04     0.4
   10    -227.8607119267385599    -4.88e-06  1.48e-05  1.86e-04  1.91e-04     0.4
   11    -227.8607123080844019    -3.81e-07  5.09e-06  5.41e-05  4.56e-05     0.4
   12    -227.8607123434169637    -3.53e-08  1.98e-06  3.85e-05  1.69e-05     0.4
   13    -227.8607123508957386    -7.48e-09  4.20e-07  6.36e-06  2.46e-06     0.3
                 **** Energy Check signals convergence ****

               *****************************************************
               *                     SUCCESS                       *
               *           SCF CONVERGED AFTER  13 CYCLES          *
               *****************************************************

             **** ENERGY FILE WAS UPDATED (acetate.en.tmp) ****

----------------
TOTAL SCF ENERGY
----------------

Total Energy       :       -227.86071235089574 Eh           -6200.40521 eV

Components:
Nuclear Repulsion  :        119.89763914800827 Eh            3262.58063 eV
Electronic Energy  :       -347.75835149890401 Eh           -9462.98583 eV
One Electron Energy:       -549.32863673352733 Eh          -14947.99215 eV
Two Electron Energy:        201.57028523462333 Eh            5485.00631 eV

Virial components:
Potential Energy   :       -455.18924167354805 Eh          -12386.32897 eV
Kinetic Energy     :        227.32852932265234 Eh            6185.92377 eV
Virial Ratio       :          2.00234103053334

---------------
SCF CONVERGENCE
---------------

  Last Energy change         ...    7.4788e-09  Tolerance :   1.0000e-08
  Last MAX-Density change    ...    6.3627e-06  Tolerance :   1.0000e-07
  Last RMS-Density change    ...    4.1989e-07  Tolerance :   5.0000e-09
  Last DIIS Error            ...    2.3513e-03  Tolerance :   5.0000e-07
  Last Orbital Gradient      ...    2.4573e-06  Tolerance :   1.0000e-05
  Last Orbital Rotation      ...    7.4484e-06  Tolerance :   1.0000e-05


----------------
ORBITAL ENERGIES
----------------

  NO   OCC          E(Eh)            E(eV) 
   0   2.0000     -20.608527      -560.7865 
   1   2.0000     -20.545473      -559.0707 
   2   2.0000     -11.392069      -309.9940 
   3   2.0000     -11.272289      -306.7346 
   4   2.0000      -1.461952       -39.7817 
   5   2.0000      -1.360219       -37.0134 
   6   2.0000      -1.010200       -27.4889 
   7   2.0000      -0.811281       -22.0761 
   8   2.0000      -0.703695       -19.1485 
   9   2.0000      -0.672421       -18.2975 
  10   2.0000      -0.641566       -17.4579 
  11   2.0000      -0.581226       -15.8160 
  12   2.0000      -0.557543       -15.1715 
  13   2.0000      -0.544007       -14.8032 
  14   2.0000      -0.479149       -13.0383 
  15   2.0000      -0.452417       -12.3109 
  16   0.0000       0.142674         3.8824 
  17   0.0000       0.159616         4.3434 
  18   0.0000       0.177169         4.8210 
  19   0.0000       0.212379         5.7791 
  20   0.0000       0.235664         6.4127 
  21   0.0000       0.347004         9.4425 
  22   0.0000       0.411394        11.1946 
  23   0.0000       0.430981        11.7276 
  24   0.0000       0.449489        12.2312 
  25   0.0000       0.499518        13.5926 
  26   0.0000       0.544012        14.8033 
*Only the first 10 virtual orbitals were printed.

                    ********************************
                    * MULLIKEN POPULATION ANALYSIS *
                    ********************************

-----------------------
MULLIKEN ATOMIC CHARGES
-----------------------
   0 C :   -0.284693
   1 C :    0.485693
   2 H :    0.132064
   3 H :    0.136784
   4 H :    0.136866
   5 O :   -0.456008
   6 O :   -0.426662
   7 H :    0.275956
Sum of atomic charges:   -0.0000000

--------------------------------
MULLIKEN REDUCED ORBITAL CHARGES
--------------------------------
  0 C s       :     3.227176  s :     3.227176
      pz      :     1.069793  p :     3.006451
      px      :     0.961701
      py      :     0.974956
      dz2     :     0.012471  d :     0.051066
      dxz     :     0.009750
      dyz     :     0.003912
      dx2y2   :     0.006660
      dxy     :     0.018273

  1 C s       :     3.033241  s :     3.033241
      pz      :     0.660349  p :     2.256143
      px      :     0.771227
      py      :     0.824567
      dz2     :     0.012496  d :     0.224923
      dxz     :     0.023781
      dyz     :     0.043425
      dx2y2   :     0.053214
      dxy     :     0.092008

  2 H s       :     0.844808  s :     0.844808
      pz      :     0.003871  p :     0.023128
      px      :     0.004508
      py      :     0.014748

  3 H s       :     0.840321  s :     0.840321
      pz      :     0.014216  p :     0.022895
      px      :     0.005503
      py      :     0.003176

  4 H s       :     0.840386  s :     0.840386
      pz      :     0.008357  p :     0.022748
      px      :     0.010200
      py      :     0.004191

  5 O s       :     3.858038  s :     3.858038
      pz      :     1.451324  p :     4.578891
      px      :     1.802980
      py      :     1.324587
      dz2     :     0.002295  d :     0.019080
      dxz     :     0.000152
      dyz     :     0.005802
      dx2y2   :     0.007019
      dxy     :     0.003812

  6 O s       :     3.806063  s :     3.806063
      pz      :     1.811264  p :     4.606211
      px      :     1.221253
      py      :     1.573694
      dz2     :     0.002141  d :     0.014387
      dxz     :     0.001421
      dyz     :     0.001404
      dx2y2   :     0.002023
      dxy     :     0.007397

  7 H s       :     0.659276  s :     0.659276
      pz      :     0.016785  p :     0.064768
      px      :     0.023843
      py      :     0.024140



                     *******************************
                     * LOEWDIN POPULATION ANALYSIS *
                     *******************************

----------------------
LOEWDIN ATOMIC CHARGES
----------------------
   0 C :   -0.020585
   1 C :    0.028679
   2 H :    0.024074
   3 H :    0.044090
   4 H :    0.033210
   5 O :   -0.166988
   6 O :   -0.004411
   7 H :    0.061932

-------------------------------
LOEWDIN REDUCED ORBITAL CHARGES
-------------------------------
  0 C s       :     2.824856  s :     2.824856
      pz      :     1.048328  p :     3.103105
      px      :     1.026877
      py      :     1.027900
      dz2     :     0.020875  d :     0.092625
      dxz     :     0.017136
      dyz     :     0.006384
      dx2y2   :     0.014328
      dxy     :     0.033902

  1 C s       :     2.819030  s :     2.819030
      pz      :     0.695191  p :     2.712649
      px      :     0.940541
      py      :     1.076917
      dz2     :     0.030305  d :     0.439642
      dxz     :     0.045498
      dyz     :     0.074401
      dx2y2   :     0.110099
      dxy     :     0.179340

  2 H s       :     0.914289  s :     0.914289
      pz      :     0.011626  p :     0.061637
      px      :     0.012621
      py      :     0.037389

  3 H s       :     0.898767  s :     0.898767
      pz      :     0.034635  p :     0.057143
      px      :     0.013847
      py      :     0.008661

  4 H s       :     0.907522  s :     0.907522
      pz      :     0.021727  p :     0.059268
      px      :     0.025703
      py      :     0.011837

  5 O s       :     3.491547  s :     3.491547
      pz      :     1.425997  p :     4.649556
      px      :     1.755397
      py      :     1.468163
      dz2     :     0.003683  d :     0.025885
      dxz     :     0.000176
      dyz     :     0.005672
      dx2y2   :     0.011624
      dxy     :     0.004730

  6 O s       :     3.378918  s :     3.378918
      pz      :     1.755070  p :     4.605392
      px      :     1.259219
      py      :     1.591102
      dz2     :     0.003009  d :     0.020101
      dxz     :     0.002098
      dyz     :     0.001060
      dx2y2   :     0.003533
      dxy     :     0.010402

  7 H s       :     0.752814  s :     0.752814
      pz      :     0.046142  p :     0.185254
      px      :     0.060069
      py      :     0.079043



                      *****************************
                      * MAYER POPULATION ANALYSIS *
                      *****************************

  NA   - Mulliken gross atomic population
  ZA   - Total nuclear charge
  QA   - Mulliken gross atomic charge
  VA   - Mayer's total valence
  BVA  - Mayer's bonded valence
  FA   - Mayer's free valence

  ATOM       NA         ZA         QA         VA         BVA        FA
  0 C      6.2847     6.0000    -0.2847     3.8057     3.8057     0.0000
  1 C      5.5143     6.0000     0.4857     3.9407     3.9407    -0.0000
  2 H      0.8679     1.0000     0.1321     0.9639     0.9639     0.0000
  3 H      0.8632     1.0000     0.1368     0.9631     0.9631     0.0000
  4 H      0.8631     1.0000     0.1369     0.9670     0.9670     0.0000
  5 O      8.4560     8.0000    -0.4560     1.9996     1.9996    -0.0000
  6 O      8.4267     8.0000    -0.4267     1.9962     1.9962    -0.0000
  7 H      0.7240     1.0000     0.2760     0.9723     0.9723    -0.0000

  Mayer bond orders larger than 0.100000
B(  0-C ,  1-C ) :   0.9353 B(  0-C ,  2-H ) :   0.9685 B(  0-C ,  3-H ) :   0.9612 
B(  0-C ,  4-H ) :   0.9757 B(  1-C ,  5-O ) :   1.9508 B(  1-C ,  6-O ) :   1.0705 
B(  6-O ,  7-H ) :   0.9269 

-------
TIMINGS
-------

Total SCF time: 0 days 0 hours 0 min 5 sec 

Total time                  ....       5.178 sec
Sum of individual times     ....       5.168 sec  ( 99.8%)

SCF preparation             ....       0.023 sec  (  0.4%)
Fock matrix formation       ....       5.114 sec  ( 98.8%)
  Startup                   ....       0.001 sec  (  0.0% of F)
  Coulomb+Exchange Fock     ....       5.110 sec  ( 99.9% of F)
Diagonalization             ....       0.000 sec  (  0.0%)
Density matrix formation    ....       0.004 sec  (  0.1%)
Total Energy calculation    ....       0.001 sec  (  0.0%)
Population analysis         ....       0.002 sec  (  0.0%)
Orbital Transformation      ....       0.004 sec  (  0.1%)
Orbital Orthonormalization  ....       0.000 sec  (  0.0%)
DIIS solution               ....       0.014 sec  (  0.3%)
SOSCF solution              ....       0.006 sec  (  0.1%)
Finished LeanSCF after   5.2 sec

Maximum memory used throughout the entire LEANSCF-calculation: 9.0 MB

------------------------------------------------------------------------------
                         ORCA PROPERTY INTEGRAL CALCULATIONS
------------------------------------------------------------------------------

GBWName                                   ... acetate.gbw
Number of atoms                           ...      8
Number of basis functions                 ...     96
Max core memory                           ...   1024 MB

Dipole integrals                          ... YES
Quadrupole integrals                      ...  NO
Linear momentum integrals                 ...  NO
Angular momentum integrals                ...  NO
Higher moments length integrals           ...  NO
Higher moments velocity integrals         ...  NO
Kinetic energy integrals                  ...  NO
GIAO right hand sides                     ...  NO
GIAO dipole derivative integrals          ...  NO
SOC integrals                             ...  NO
EPR diamagnetic integrals (GIAO)          ...  NO
EPR gauge integrals                       ...  NO
Field gradient integrals                  ...  NO (   0 nuclei)
Spin-dipole/Fermi contact integrals       ...  NO (   0 nuclei)
Contact density integrals                 ...  NO (   0 nuclei)
Nucleus-orbit integrals                   ...  NO (   0 nuclei)
Geometric perturbations                   ...  NO (   8 nuclei)

Choice of electric origin   ... Center of mass
Position of electric origin ... (  0.6160,  0.7518, -0.0251) 
Choice of magnetic origin   ... GIAO
Position of magnetic origin ... (  0.0000,  0.0000,  0.0000) 

Calculating integrals                     ... Electric Dipole (Length)     done (  0.0 sec)

Property integrals calculated in   0.0 sec

Maximum memory used throughout the entire PROPINT-calculation: 5.6 MB

-------------------------   --------------------
FINAL SINGLE POINT ENERGY      -227.860712350896
-------------------------   --------------------

------------------------------------------------------------------------------
                         ORCA SCF GRADIENT CALCULATION
------------------------------------------------------------------------------

Nuc. rep. gradient        (SHARK) ... done (  0.0 sec)
HCore & Overlap gradient  (SHARK) ... done (  0.0 sec)
Two-electron gradient     (SHARK) ... done (  1.8 sec)

------------------
CARTESIAN GRADIENT
------------------

   1   C   :    0.031815655    0.011872646   -0.006714951
   2   C   :   -0.008715533   -0.029956091   -0.014297610
   3   H   :    0.017494620   -0.037681659   -0.008662304
   4   H   :   -0.021519717    0.001239633    0.049495721
   5   H   :   -0.033011991    0.019314098   -0.029384582
   6   O   :   -0.010213115    0.052615568   -0.001156579
   7   O   :    0.005755561   -0.041518230    0.016718316
   8   H   :    0.018394521    0.024114035   -0.005998011

Difference to translation invariance:
           :    0.0000000000    0.0000000000    0.0000000000

Difference to rotation invariance:
           :    0.0000001436    0.0000002505   -0.0000000684

Norm of the Cartesian gradient     ...    0.1236286288
RMS gradient                       ...    0.0252355882
MAX gradient                       ...    0.0526155679

-------
TIMINGS
-------

Total SCF gradient time     ....        1.834 sec

Densities                   ....       0.000 sec  (  0.0%)
One electron gradient       ....       0.033 sec  (  1.8%)
Two electron gradient       ....       1.801 sec  ( 98.2%)

Maximum memory used throughout the entire SCFGRAD-calculation: 14.8 MB
------------------------------------------------------------------------------
                         ORCA GEOMETRY RELAXATION STEP
------------------------------------------------------------------------------

Reading the OPT-File                    .... done
Getting information on internals        .... done
Copying old internal coords+grads       .... done
Making the new internal coordinates     .... (2022 redundants) done
Validating the new internal coordinates .... (2022 redundants) done
Calculating the B-matrix                .... done
Calculating the G,G- and P matrices     .... done
Transforming gradient to internals      .... done
Projecting the internal gradient        .... done
Number of atoms                         ....   8
Number of internal coordinates          ....  24
Current Energy                          ....  -227.860712351 Eh
Current gradient norm                   ....     0.123628629 Eh/bohr
Maximum allowed component of the step   ....  0.300
Current trust radius                    ....  0.300
Evaluating the initial hessian          ....  (Almloef) done
Projecting the Hessian                  .... done
Forming the augmented Hessian           .... done
Diagonalizing the augmented Hessian     .... done
Last element of RFO vector              ....  0.949610252
Lowest eigenvalues of augmented Hessian:
 -0.030781688  0.012002789  0.017936561  0.028332455  0.129052354
Length of the computed step             ....  0.330065093
Warning: the length of the step is outside the trust region - taking restricted step instead
The input lambda is                     ....     0.010994
   iter:   5  x=   -0.020554  g=    6.886752 f(x)=     0.090446
   iter:  10  x=   -0.048620  g=    0.811209 f(x)=     0.000000
The output lambda is                    ....    -0.048620 (12 iterations)
The final length of the internal step   ....  0.300000000
Converting the step to Cartesian space:
 Initial RMS(Int)=    0.0612372436
Transforming coordinates:
 Iter   0:  RMS(Cart)=    0.0593616288 RMS(Int)=    0.0612997867
 Iter   5:  RMS(Cart)=    0.0000000285 RMS(Int)=    0.0000000229
done
Storing new coordinates                 .... done

                                .--------------------.
          ----------------------|Geometry convergence|-------------------------
          Item                value                   Tolerance       Converged
          ---------------------------------------------------------------------
          RMS gradient        0.0223593843            0.0001000000      NO
          MAX gradient        0.0539636958            0.0003000000      NO
          RMS step            0.0612372436            0.0020000000      NO
          MAX step            0.1782362872            0.0040000000      NO
          ........................................................
          Max(Bonds)      0.0943      Max(Angles)    1.05
          Max(Dihed)        3.88      Max(Improp)    0.00
          ---------------------------------------------------------------------

The optimization has not yet converged - more geometry cycles are needed


    ---------------------------------------------------------------------------
                         Redundant Internal Coordinates
                            (Angstroem and degrees)

        Definition                    Value    dE/dq     Step     New-Value
    ----------------------------------------------------------------------------
     1. B(C   1,C   0)                1.5100  0.007507 -0.0088    1.5012   
     2. B(H   2,C   0)                1.1494  0.042297 -0.0662    1.0832   
     3. B(H   3,C   0)                1.1849  0.053964 -0.0943    1.0905   
     4. B(H   4,C   0)                1.1636  0.048044 -0.0786    1.0850   
     5. B(O   5,C   1)                1.2077  0.053165 -0.0246    1.1830   
     6. B(O   6,C   1)                1.3623  0.030835 -0.0244    1.3379   
     7. B(H   7,O   6)                0.9762  0.030632 -0.0301    0.9461   
     8. A(C   1,C   0,H   2)          110.80 -0.003130    0.46    111.26   
     9. A(C   1,C   0,H   4)          107.64 -0.005303    0.90    108.54   
    10. A(H   2,C   0,H   4)          113.17  0.005770   -1.05    112.12   
    11. A(C   1,C   0,H   3)          107.83  0.000573   -0.05    107.78   
    12. A(H   3,C   0,H   4)          107.65 -0.000182    0.23    107.88   
    13. A(H   2,C   0,H   3)          109.56  0.002061   -0.44    109.12   
    14. A(C   0,C   1,O   5)          125.06 -0.002235    0.34    125.40   
    15. A(O   5,C   1,O   6)          122.62  0.005376   -0.51    122.11   
    16. A(C   0,C   1,O   6)          112.09 -0.003626    0.55    112.65   
    17. A(C   1,O   6,H   7)          105.60 -0.006130    0.85    106.45   
    18. D(O   5,C   1,C   0,H   3)    -82.37  0.003393   -2.34    -84.70   
    19. D(O   5,C   1,C   0,H   2)    157.74  0.002364   -2.04    155.70   
    20. D(O   6,C   1,C   0,H   2)    -27.69 -0.002998    2.42    -25.27   
    21. D(O   6,C   1,C   0,H   3)     92.20 -0.001969    2.12     94.33   
    22. D(O   5,C   1,C   0,H   4)     33.52  0.000758   -1.63     31.89   
    23. D(H   7,O   6,C   1,O   5)     -7.72 -0.005094    3.88     -3.84   
    24. D(H   7,O   6,C   1,C   0)    177.56  0.000578   -0.51    177.05   
    ----------------------------------------------------------------------------

Geometry step timings:
Preparation and reading OPT file:      0.000 s (12.151 %)
Internal coordinates            :      0.000 s ( 2.996 %)
B/P matrices and projection     :      0.000 s (18.976 %)
Hessian update/contruction      :      0.000 s (10.029 %)
Making the step                 :      0.001 s (20.807 %)
Converting the step to Cartesian:      0.000 s ( 4.661 %)
Storing new data                :      0.000 s ( 2.122 %)
Checking convergence            :      0.000 s ( 0.125 %)
Final printing                  :      0.001 s (27.882 %)
Total time                      :      0.002 s

Time for energy+gradient        :      7.511 s
Time for complete geometry iter :      7.530 s

         *************************************************************
         *                GEOMETRY OPTIMIZATION CYCLE   2            *
         *************************************************************
---------------------------------
CARTESIAN COORDINATES (ANGSTROEM)
---------------------------------
  C     -0.816555   -0.510469   -0.017424
  C      0.299802    0.492994   -0.033671
  H     -0.455761   -1.503136   -0.257817
  H     -1.242540   -0.518572    0.986443
  H     -1.588362   -0.179057   -0.704154
  O      0.172655    1.655358   -0.213336
  O      1.493856   -0.062722    0.201397
  H      2.132055    0.631664    0.126001

----------------------------
CARTESIAN COORDINATES (A.U.)
----------------------------
  NO LB      ZA    FRAG     MASS         X           Y           Z
   0 C     6.0000    0    12.011   -1.543065   -0.964647   -0.032927
   1 C     6.0000    0    12.011    0.566544    0.931624   -0.063629
   2 H     1.0000    0     1.008   -0.861264   -2.840514   -0.487203
   3 H     1.0000    0     1.008   -2.348060   -0.979960    1.864108
   4 H     1.0000    0     1.008   -3.001570   -0.338369   -1.330659
   5 O     8.0000    0    15.999    0.326271    3.128174   -0.403146
   6 O     8.0000    0    15.999    2.822979   -0.118528    0.380585
   7 H     1.0000    0     1.008    4.028999    1.193672    0.238108

--------------------------------
INTERNAL COORDINATES (ANGSTROEM)
--------------------------------
 C      0   0   0     0.000000000000     0.00000000     0.00000000
 C      1   0   0     1.501151574540     0.00000000     0.00000000
 H      1   2   0     1.083211117903   111.25292158     0.00000000
 H      1   2   3     1.090540688473   107.78342356   119.59576190
 H      1   2   3     1.084951419564   108.54112214   236.19092143
 O      2   1   3     1.183019729937   125.34566197   155.69132405
 O      2   1   3     1.337850117084   112.59208361   334.74060872
 H      7   2   1     0.946125509108   106.44992633   177.06336198

---------------------------
INTERNAL COORDINATES (A.U.)
---------------------------
 C      0   0   0     0.000000000000     0.00000000     0.00000000
 C      1   0   0     2.836765361386     0.00000000     0.00000000
 H      1   2   0     2.046972358055   111.25292158     0.00000000
 H      1   2   3     2.060823239112   107.78342356   119.59576190
 H      1   2   3     2.050261051584   108.54112214   236.19092143
 O      2   1   3     2.235583300606   125.34566197   155.69132405
 O      2   1   3     2.528170329523   112.59208361   334.74060872
 H      7   2   1     1.787918100532   106.44992633   177.06336198

------------------------------------------------------------------------------
                   ___                                                        
                  /   \      - P O W E R E D   B Y -                         
                 /     \                                                     
                 |  |  |   _    _      __       _____    __    __             
                 |  |  |  | |  | |    /  \     |  _  \  |  |  /  |          
                  \  \/   | |  | |   /    \    | | | |  |  | /  /          
                 / \  \   | |__| |  /  /\  \   | |_| |  |  |/  /          
                |  |  |   |  __  | /  /__\  \  |    /   |      \           
                |  |  |   | |  | | |   __   |  |    \   |  |\   \          
                \     /   | |  | | |  |  |  |  | |\  \  |  | \   \       
                 \___/    |_|  |_| |__|  |__|  |_| \__\ |__|  \__/        
                                                                              
                      - O R C A' S   B I G   F R I E N D -                    
                                      &                                       
                       - I N T E G R A L  F E E D E R -                       
                                                                              
 v1 FN, 2020, v2 2021, v3 2022-2024                                           
------------------------------------------------------------------------------


----------------------
SHARK INTEGRAL PACKAGE
----------------------

Number of atoms                             ...      8
Number of basis functions                   ...     96
Number of shells                            ...     48
Maximum angular momentum                    ...      2
Integral batch strategy                     ... SHARK/LIBINT Hybrid
RI-J (if used) integral strategy            ... SPLIT-RIJ (Revised 2003 algorithm where possible)
Printlevel                                  ...      1
Contraction scheme used                     ... SEGMENTED contraction
Prescreening option                         ... SCHWARTZ
   Thresh                                   ... 2.500e-11
   Tcut                                     ... 2.500e-12
   Tpresel                                  ... 2.500e-12 
Coulomb Range Separation                    ... NOT USED
Exchange Range Separation                   ... NOT USED
Multipole approximations                    ... NOT USED
Finite Nucleus Model                        ... NOT USED
CABS basis                                  ... NOT available
Auxiliary Coulomb fitting basis             ... NOT available
Auxiliary J/K fitting basis                 ... NOT available
Auxiliary Correlation fitting basis         ... NOT available
Auxiliary 'external' fitting basis          ... NOT available

Checking pre-screening integrals            ... done (  0.0 sec) Dimension = 48
Check shell pair data                       ... done (  0.0 sec)
Shell pair information
Shell pair cut-off parameter TPreSel        ...   2.5e-12
Total number of shell pairs                 ...      1176
Shell pairs after pre-screening             ...      1146
Total number of primitive shell pairs       ...      4374
Primitive shell pairs kept                  ...      3355
          la=0 lb=0:    382 shell pairs
          la=1 lb=0:    442 shell pairs
          la=1 lb=1:    136 shell pairs
          la=2 lb=0:    112 shell pairs
          la=2 lb=1:     64 shell pairs
          la=2 lb=2:     10 shell pairs

Calculating one electron integrals          ... done (  0.0 sec)
Calculating Nuclear repulsion               ... done (  0.0 sec) ENN=    122.485206834114 Eh

Diagonalization of the overlap matrix:
Smallest eigenvalue                        ... 2.929e-03
Time for diagonalization                   ...    0.001 sec
Threshold for overlap eigenvalues          ... 1.000e-07
Number of eigenvalues below threshold      ... 0
Time for construction of square roots      ...    0.000 sec
Total time needed                          ...    0.001 sec

-------------------
DFT GRID GENERATION
-------------------

General Integration Accuracy     IntAcc      ... 4.388
Radial Grid Type                 RadialGrid  ... OptM3 with GC (2021)
Angular Grid (max. ang.)         AngularGrid ... 4 (Lebedev-302)
Angular grid pruning method      GridPruning ... 4 (adaptive)
Weight generation scheme         WeightScheme... mBecke (2022)
Basis function cutoff            BFCut       ... 1.0000e-11
Integration weight cutoff        WCut        ... 1.0000e-14
Partially contracted basis set               ... off
Rotationally invariant grid construction     ... off
Angular grids for H and He will be reduced by one unit

Total number of grid points                  ...    37393
Total number of batches                      ...      588
Average number of points per batch           ...       63
Average number of grid points per atom       ...     4674
Initializing property integral containers    ... done (  0.0 sec)

SHARK setup successfully completed in   0.2 seconds

Maximum memory used throughout the entire STARTUP-calculation: 14.7 MB
Occupation numbers will be reassigned to an Aufbau configuration
             **** ENERGY FILE WAS UPDATED (acetate.en.tmp) ****
Finished Guess after   0.0 sec
Maximum memory used throughout the entire GUESS-calculation: 5.5 MB
----------------------------------------D-I-I-S--------------------------------------------
Iteration    Energy (Eh)           Delta-E    RMSDP     MaxDP     DIISErr   Damp  Time(sec)
-------------------------------------------------------------------------------------------
               ***  Starting incremental Fock matrix formation  ***
    1    -227.8721183112182302     0.00e+00  3.10e-04  7.88e-03  4.04e-02  0.700   0.4
    2    -227.8734274339115018    -1.31e-03  2.65e-04  6.37e-03  2.98e-02  0.700   0.4
                               ***Turning on AO-DIIS***
    3    -227.8743999542601841    -9.73e-04  2.20e-04  4.71e-03  2.24e-02  0.700   0.4
    4    -227.8751130219173433    -7.13e-04  5.87e-04  1.20e-02  1.62e-02  0.000   0.4
                              *** Initializing SOSCF ***
---------------------------------------S-O-S-C-F--------------------------------------
Iteration    Energy (Eh)           Delta-E    RMSDP     MaxDP     MaxGrad    Time(sec)
--------------------------------------------------------------------------------------
    5    -227.8770124582491690    -1.90e-03  7.11e-05  7.85e-04  1.87e-03     0.4
               *** Restarting incremental Fock matrix formation ***
    6    -227.8770287389307896    -1.63e-05  3.85e-05  4.34e-04  3.22e-04     0.4
    7    -227.8770322237283494    -3.48e-06  3.27e-05  2.93e-04  1.89e-04     0.4
    8    -227.8770332823903573    -1.06e-06  5.98e-06  1.06e-04  5.31e-05     0.4
    9    -227.8770333466521265    -6.43e-08  3.22e-06  4.80e-05  3.18e-05     0.4
   10    -227.8770333732882705    -2.66e-08  1.89e-06  2.38e-05  9.55e-06     0.4
   11    -227.8770333778684858    -4.58e-09  3.27e-07  4.48e-06  2.54e-06     0.3
                 **** Energy Check signals convergence ****

               *****************************************************
               *                     SUCCESS                       *
               *           SCF CONVERGED AFTER  11 CYCLES          *
               *****************************************************

             **** ENERGY FILE WAS UPDATED (acetate.en.tmp) ****

----------------
TOTAL SCF ENERGY
----------------

Total Energy       :       -227.87703337786849 Eh           -6200.84932 eV

Components:
Nuclear Repulsion  :        122.48520683411380 Eh            3332.99192 eV
Electronic Energy  :       -350.36224021198228 Eh           -9533.84125 eV
One Electron Energy:       -554.36433670487236 Eh          -15085.02051 eV
Two Electron Energy:        204.00209649289008 Eh            5551.17926 eV

Virial components:
Potential Energy   :       -455.76645509115053 Eh          -12402.03575 eV
Kinetic Energy     :        227.88942171328208 Eh            6201.18643 eV
Virial Ratio       :          1.99994563883080

---------------
SCF CONVERGENCE
---------------

  Last Energy change         ...    4.5802e-09  Tolerance :   1.0000e-08
  Last MAX-Density change    ...    4.4846e-06  Tolerance :   1.0000e-07
  Last RMS-Density change    ...    3.2692e-07  Tolerance :   5.0000e-09
  Last DIIS Error            ...    1.8667e-03  Tolerance :   5.0000e-07
  Last Orbital Gradient      ...    2.5445e-06  Tolerance :   1.0000e-05
  Last Orbital Rotation      ...    6.2882e-06  Tolerance :   1.0000e-05


Total SCF time: 0 days 0 hours 0 min 4 sec 
Finished LeanSCF after   4.4 sec

Maximum memory used throughout the entire LEANSCF-calculation: 9.1 MB

------------------------------------------------------------------------------
                         ORCA PROPERTY INTEGRAL CALCULATIONS
------------------------------------------------------------------------------

GBWName                                   ... acetate.gbw
Number of atoms                           ...      8
Number of basis functions                 ...     96
Max core memory                           ...   1024 MB

Dipole integrals                          ... YES
Quadrupole integrals                      ...  NO
Linear momentum integrals                 ...  NO
Angular momentum integrals                ...  NO
Higher moments length integrals           ...  NO
Higher moments velocity integrals         ...  NO
Kinetic energy integrals                  ...  NO
GIAO right hand sides                     ...  NO
GIAO dipole derivative integrals          ...  NO
SOC integrals                             ...  NO
EPR diamagnetic integrals (GIAO)          ...  NO
EPR gauge integrals                       ...  NO
Field gradient integrals                  ...  NO (   0 nuclei)
Spin-dipole/Fermi contact integrals       ...  NO (   0 nuclei)
Contact density integrals                 ...  NO (   0 nuclei)
Nucleus-orbit integrals                   ...  NO (   0 nuclei)
Geometric perturbations                   ...  NO (   8 nuclei)

Choice of electric origin   ... Center of mass
Position of electric origin ... (  0.6071,  0.7455, -0.0205) 
Choice of magnetic origin   ... GIAO
Position of magnetic origin ... (  0.0000,  0.0000,  0.0000) 

Calculating integrals                     ... Electric Dipole (Length)     done (  0.0 sec)

Property integrals calculated in   0.0 sec

Maximum memory used throughout the entire PROPINT-calculation: 5.6 MB

-------------------------   --------------------
FINAL SINGLE POINT ENERGY      -227.877033377868
-------------------------   --------------------

------------------------------------------------------------------------------
                         ORCA SCF GRADIENT CALCULATION
------------------------------------------------------------------------------

Nuc. rep. gradient        (SHARK) ... done (  0.0 sec)
HCore & Overlap gradient  (SHARK) ... done (  0.0 sec)
Two-electron gradient     (SHARK) ... done (  1.9 sec)

------------------
CARTESIAN GRADIENT
------------------

   1   C   :    0.002746971   -0.002509644   -0.003021011
   2   C   :   -0.005213930    0.001204875   -0.000807856
   3   H   :    0.001809676   -0.001726012    0.000372055
   4   H   :   -0.001621578    0.001227727    0.002780743
   5   H   :   -0.001943278    0.002629744   -0.000985388
   6   O   :   -0.000188476    0.003707514    0.000342288
   7   O   :    0.006766480   -0.005960132    0.003920398
   8   H   :   -0.002355866    0.001425928   -0.002601228

Difference to translation invariance:
           :    0.0000000000   -0.0000000000   -0.0000000000

Difference to rotation invariance:
           :    0.0000014898    0.0000025369   -0.0000002418

Norm of the Cartesian gradient     ...    0.0143913459
RMS gradient                       ...    0.0029376212
MAX gradient                       ...    0.0067664801

-------
TIMINGS
-------

Total SCF gradient time     ....        1.901 sec

Densities                   ....       0.000 sec  (  0.0%)
One electron gradient       ....       0.033 sec  (  1.7%)
Two electron gradient       ....       1.868 sec  ( 98.3%)

Maximum memory used throughout the entire SCFGRAD-calculation: 14.9 MB
------------------------------------------------------------------------------
                         ORCA GEOMETRY RELAXATION STEP
------------------------------------------------------------------------------

Reading the OPT-File                    .... done
Getting information on internals        .... done
Copying old internal coords+grads       .... done
Making the new internal coordinates     .... (2022 redundants) done
Validating the new internal coordinates .... (2022 redundants) done
Calculating the B-matrix                .... done
Calculating the G,G- and P matrices     .... done
Transforming gradient to internals      .... done
Projecting the internal gradient        .... done
Number of atoms                         ....   8
Number of internal coordinates          ....  24
Current Energy                          ....  -227.877033378 Eh
Current gradient norm                   ....     0.014391346 Eh/bohr
Maximum allowed component of the step   ....  0.300
Current trust radius                    ....  0.300
Updating the Hessian (BFGS)             .... done
Forming the augmented Hessian           .... done
Diagonalizing the augmented Hessian     .... done
Last element of RFO vector              ....  0.992944277
Lowest eigenvalues of augmented Hessian:
 -0.000608683  0.012021553  0.017847765  0.028338529  0.129050259
Length of the computed step             ....  0.119424508
The final length of the internal step   ....  0.119424508
Converting the step to Cartesian space:
 Initial RMS(Int)=    0.0243774256
Transforming coordinates:
 Iter   0:  RMS(Cart)=    0.0295837180 RMS(Int)=    1.2659563918
 Iter   5:  RMS(Cart)=    0.0000000067 RMS(Int)=    0.0000000074
done
Storing new coordinates                 .... done
The predicted energy change is          ....    -0.000308682
Previously predicted energy change      ....    -0.016699434
Actually observed energy change         ....    -0.016321027
Ratio of predicted to observed change   ....     0.977340118
New trust radius                        ....     0.450000000

                                .--------------------.
          ----------------------|Geometry convergence|-------------------------
          Item                value                   Tolerance       Converged
          ---------------------------------------------------------------------
          Energy change      -0.0163210270            0.0000050000      NO
          RMS gradient        0.0022588619            0.0001000000      NO
          MAX gradient        0.0060517591            0.0003000000      NO
          RMS step            0.0243774256            0.0020000000      NO
          MAX step            0.0821409915            0.0040000000      NO
          ........................................................
          Max(Bonds)      0.0078      Max(Angles)    0.96
          Max(Dihed)        4.71      Max(Improp)    0.00
          ---------------------------------------------------------------------

The optimization has not yet converged - more geometry cycles are needed


    ---------------------------------------------------------------------------
                         Redundant Internal Coordinates
                            (Angstroem and degrees)

        Definition                    Value    dE/dq     Step     New-Value
    ----------------------------------------------------------------------------
     1. B(C   1,C   0)                1.5012 -0.000494  0.0006    1.5017   
     2. B(H   2,C   0)                1.0832  0.002102 -0.0047    1.0785   
     3. B(H   3,C   0)                1.0905  0.003184 -0.0078    1.0827   
     4. B(H   4,C   0)                1.0850  0.002809 -0.0065    1.0785   
     5. B(O   5,C   1)                1.1830  0.003611 -0.0023    1.1807   
     6. B(O   6,C   1)                1.3379  0.006052 -0.0059    1.3319   
     7. B(H   7,O   6)                0.9461 -0.000335 -0.0000    0.9461   
     8. A(C   1,C   0,H   2)          111.25 -0.000524    0.06    111.31   
     9. A(C   1,C   0,H   4)          108.54 -0.001554    0.34    108.88   
    10. A(H   2,C   0,H   4)          112.11  0.002148   -0.59    111.52   
    11. A(C   1,C   0,H   3)          107.78 -0.000848    0.23    108.01   
    12. A(H   3,C   0,H   4)          107.88 -0.000228    0.23    108.12   
    13. A(H   2,C   0,H   3)          109.12  0.000897   -0.22    108.90   
    14. A(C   0,C   1,O   5)          125.35  0.000495   -0.14    125.21   
    15. A(O   5,C   1,O   6)          122.06 -0.000212   -0.05    122.00   
    16. A(C   0,C   1,O   6)          112.59 -0.000280   -0.03    112.56   
    17. A(C   1,O   6,H   7)          106.45 -0.005699    0.96    107.41   
    18. D(O   5,C   1,C   0,H   3)    -84.71  0.000604   -0.40    -85.11   
    19. D(O   5,C   1,C   0,H   2)    155.69  0.000349   -0.30    155.39   
    20. D(O   6,C   1,C   0,H   2)    -25.26  0.000528   -2.73    -27.99   
    21. D(O   6,C   1,C   0,H   3)     94.34  0.000783   -2.82     91.51   
    22. D(O   5,C   1,C   0,H   4)     31.88 -0.000937    0.16     32.05   
    23. D(H   7,O   6,C   1,O   5)     -3.85 -0.001641    2.34     -1.51   
    24. D(H   7,O   6,C   1,C   0)    177.06 -0.001821    4.71    181.77   
    ----------------------------------------------------------------------------

Geometry step timings:
Preparation and reading OPT file:      0.000 s (14.723 %)
Internal coordinates            :      0.000 s ( 2.365 %)
B/P matrices and projection     :      0.000 s (17.129 %)
Hessian update/contruction      :      0.000 s (14.723 %)
Making the step                 :      0.000 s (11.949 %)
Converting the step to Cartesian:      0.000 s ( 3.834 %)
Storing new data                :      0.000 s ( 2.080 %)
Checking convergence            :      0.000 s ( 1.183 %)
Final printing                  :      0.001 s (31.974 %)
Total time                      :      0.002 s

Time for energy+gradient        :      6.721 s
Time for complete geometry iter :      6.739 s

         *************************************************************
         *                GEOMETRY OPTIMIZATION CYCLE   3            *
         *************************************************************
---------------------------------
CARTESIAN COORDINATES (ANGSTROEM)
---------------------------------
  C     -0.817507   -0.508397   -0.017860
  C      0.302860    0.490650   -0.061323
  H     -0.470929   -1.497381   -0.272685
  H     -1.212946   -0.524223    0.989957
  H     -1.602645   -0.181179   -0.680909
  O      0.174635    1.651339   -0.235784
  O      1.489211   -0.059122    0.192474
  H      2.132472    0.634374    0.173570

----------------------------
CARTESIAN COORDINATES (A.U.)
----------------------------
  NO LB      ZA    FRAG     MASS         X           Y           Z
   0 C     6.0000    0    12.011   -1.544865   -0.960731   -0.033751
   1 C     6.0000    0    12.011    0.572322    0.927193   -0.115883
   2 H     1.0000    0     1.008   -0.889928   -2.829640   -0.515301
   3 H     1.0000    0     1.008   -2.292136   -0.990638    1.870748
   4 H     1.0000    0     1.008   -3.028559   -0.342379   -1.286731
   5 O     8.0000    0    15.999    0.330012    3.120578   -0.445567
   6 O     8.0000    0    15.999    2.814200   -0.111725    0.363723
   7 H     1.0000    0     1.008    4.029789    1.198793    0.327999

--------------------------------
INTERNAL COORDINATES (ANGSTROEM)
--------------------------------
 C      0   0   0     0.000000000000     0.00000000     0.00000000
 C      1   0   0     1.501734170667     0.00000000     0.00000000
 H      1   2   0     1.078490630059   111.31319653     0.00000000
 H      1   2   3     1.082736650132   108.00718711   119.49831598
 H      1   2   3     1.078491993165   108.87380205   236.66056939
 O      2   1   3     1.180710757600   125.25641896   155.39208801
 O      2   1   3     1.331949600952   112.60588088   332.00778394
 H      7   2   1     0.946086769380   107.41135301   181.75902270

---------------------------
INTERNAL COORDINATES (A.U.)
---------------------------
 C      0   0   0     0.000000000000     0.00000000     0.00000000
 C      1   0   0     2.837866308512     0.00000000     0.00000000
 H      1   2   0     2.038051928812   111.31319653     0.00000000
 H      1   2   3     2.046075743908   108.00718711   119.49831598
 H      1   2   3     2.038054504708   108.87380205   236.66056939
 O      2   1   3     2.231219975238   125.25641896   155.39208801
 O      2   1   3     2.517019969985   112.60588088   332.00778394
 H      7   2   1     1.787844893055   107.41135301   181.75902270

------------------------------------------------------------------------------
                   ___                                                        
                  /   \      - P O W E R E D   B Y -                         
                 /     \                                                     
                 |  |  |   _    _      __       _____    __    __             
                 |  |  |  | |  | |    /  \     |  _  \  |  |  /  |          
                  \  \/   | |  | |   /    \    | | | |  |  | /  /          
                 / \  \   | |__| |  /  /\  \   | |_| |  |  |/  /          
                |  |  |   |  __  | /  /__\  \  |    /   |      \           
                |  |  |   | |  | | |   __   |  |    \   |  |\   \          
                \     /   | |  | | |  |  |  |  | |\  \  |  | \   \       
                 \___/    |_|  |_| |__|  |__|  |_| \__\ |__|  \__/        
                                                                              
                      - O R C A' S   B I G   F R I E N D -                    
                                      &                                       
                       - I N T E G R A L  F E E D E R -                       
                                                                              
 v1 FN, 2020, v2 2021, v3 2022-2024                                           
------------------------------------------------------------------------------


----------------------
SHARK INTEGRAL PACKAGE
----------------------

Number of atoms                             ...      8
Number of basis functions                   ...     96
Number of shells                            ...     48
Maximum angular momentum                    ...      2
Integral batch strategy                     ... SHARK/LIBINT Hybrid
RI-J (if used) integral strategy            ... SPLIT-RIJ (Revised 2003 algorithm where possible)
Printlevel                                  ...      1
Contraction scheme used                     ... SEGMENTED contraction
Prescreening option                         ... SCHWARTZ
   Thresh                                   ... 2.500e-11
   Tcut                                     ... 2.500e-12
   Tpresel                                  ... 2.500e-12 
Coulomb Range Separation                    ... NOT USED
Exchange Range Separation                   ... NOT USED
Multipole approximations                    ... NOT USED
Finite Nucleus Model                        ... NOT USED
CABS basis                                  ... NOT available
Auxiliary Coulomb fitting basis             ... NOT available
Auxiliary J/K fitting basis                 ... NOT available
Auxiliary Correlation fitting basis         ... NOT available
Auxiliary 'external' fitting basis          ... NOT available

Checking pre-screening integrals            ... done (  0.0 sec) Dimension = 48
Check shell pair data                       ... done (  0.0 sec)
Shell pair information
Shell pair cut-off parameter TPreSel        ...   2.5e-12
Total number of shell pairs                 ...      1176
Shell pairs after pre-screening             ...      1146
Total number of primitive shell pairs       ...      4374
Primitive shell pairs kept                  ...      3356
          la=0 lb=0:    382 shell pairs
          la=1 lb=0:    442 shell pairs
          la=1 lb=1:    136 shell pairs
          la=2 lb=0:    112 shell pairs
          la=2 lb=1:     64 shell pairs
          la=2 lb=2:     10 shell pairs

Calculating one electron integrals          ... done (  0.0 sec)
Calculating Nuclear repulsion               ... done (  0.0 sec) ENN=    122.745314656788 Eh

Diagonalization of the overlap matrix:
Smallest eigenvalue                        ... 2.940e-03
Time for diagonalization                   ...    0.001 sec
Threshold for overlap eigenvalues          ... 1.000e-07
Number of eigenvalues below threshold      ... 0
Time for construction of square roots      ...    0.000 sec
Total time needed                          ...    0.001 sec

-------------------
DFT GRID GENERATION
-------------------

General Integration Accuracy     IntAcc      ... 4.388
Radial Grid Type                 RadialGrid  ... OptM3 with GC (2021)
Angular Grid (max. ang.)         AngularGrid ... 4 (Lebedev-302)
Angular grid pruning method      GridPruning ... 4 (adaptive)
Weight generation scheme         WeightScheme... mBecke (2022)
Basis function cutoff            BFCut       ... 1.0000e-11
Integration weight cutoff        WCut        ... 1.0000e-14
Partially contracted basis set               ... off
Rotationally invariant grid construction     ... off
Angular grids for H and He will be reduced by one unit

Total number of grid points                  ...    37398
Total number of batches                      ...      588
Average number of points per batch           ...       63
Average number of grid points per atom       ...     4675
Initializing property integral containers    ... done (  0.0 sec)

SHARK setup successfully completed in   0.3 seconds

Maximum memory used throughout the entire STARTUP-calculation: 14.7 MB
Occupation numbers will be reassigned to an Aufbau configuration
             **** ENERGY FILE WAS UPDATED (acetate.en.tmp) ****
Finished Guess after   0.0 sec
Maximum memory used throughout the entire GUESS-calculation: 5.5 MB
----------------------------------------D-I-I-S--------------------------------------------
Iteration    Energy (Eh)           Delta-E    RMSDP     MaxDP     DIISErr   Damp  Time(sec)
-------------------------------------------------------------------------------------------
               ***  Starting incremental Fock matrix formation  ***
    1    -227.8763920058543420     0.00e+00  1.13e-04  2.03e-03  2.26e-02  0.700   0.4
[...]
      2       0.000000   0.000000   0.000000   0.000000   0.000000   0.000000
      3       0.000000   0.000000   0.000000   0.000000   0.000000   0.000000
      4       0.000000   0.000000   0.000000   0.000000   0.000000   0.000000
      5       0.000000   0.000000   0.000000   0.000000   0.000000   0.000000
      6       0.000000   0.000000   0.000000   0.000000   0.000000   0.000000
      7       0.000000   0.000000   0.000000   0.000000   0.000000   0.000000
      8       0.000000   0.000000   0.000000   0.000000   0.000000   0.000000
      9       0.000000   0.000000   0.000000   0.000000   0.000000   0.000000
     10       0.000000   0.000000   0.000000   0.000000   0.000000   0.000000
     11       0.000000   0.000000   0.000000   0.000000   0.000000   0.000000
     12       0.000000   0.000000   0.000000   0.000000   0.000000   0.000000
     13       0.000000   0.000000   0.000000   0.000000   0.000000   0.000000
     14       0.000000   0.000000   0.000000   0.000000   0.000000   0.000000
     15       0.000000   0.000000   0.000000   0.000000   0.000000   0.000000
     16       0.000000   0.000000   0.000000   0.000000   0.000000   0.000000
     17       0.000000   0.000000   0.000000   0.000000   0.000000   0.000000
     18       0.000000   0.000000   0.000000   0.000000   0.000000   0.000000
     19       0.000000   0.000000   0.000000   0.000000   0.000000   0.000000
     20       0.000000   0.000000   0.000000   0.000000   0.000000   0.000000
     21       0.000000   0.000000   0.000000   0.000000   0.000000   0.000000
     22       0.000000   0.000000   0.000000   0.000000   0.000000   0.000000
     23       0.000000   0.000000   0.000000   0.000000   0.000000   0.000000
                  6          7          8          9         10         11    
      0      -0.000937  -0.144834   0.003127   0.198989  -0.010382  -0.223394
      1       0.001439   0.098118  -0.005378   0.195960   0.015517  -0.190998
      2       0.003290  -0.084786  -0.011469  -0.028981   0.035474   0.019723
      3      -0.003075   0.066247  -0.043599   0.111404  -0.045812   0.068985
      4       0.004682  -0.118423   0.066368   0.062280   0.069998   0.144694
      5       0.010581   0.071187   0.151067   0.005599   0.159214  -0.044028
      6      -0.187886  -0.443968   0.291585   0.140955   0.288629  -0.290603
      7       0.228561   0.053823   0.125024   0.189205   0.178735  -0.215023
      8      -0.517352  -0.164683  -0.100803  -0.044166  -0.112284   0.016365
      9       0.351898  -0.448499  -0.233972   0.138676  -0.237040  -0.287812
     10      -0.478748   0.063292  -0.215286   0.188605  -0.259765  -0.218592
     11      -0.048896  -0.144067  -0.102342  -0.042620  -0.070507   0.007903
     12      -0.136226   0.108921   0.058095   0.274759   0.044066  -0.279359
     13       0.207967   0.517031  -0.088632   0.312641  -0.066507  -0.260520
     14       0.471375  -0.195684  -0.201044  -0.059370  -0.151895   0.034316
     15       0.013595  -0.090465   0.011473  -0.302179   0.020080  -0.045892
     16      -0.020702  -0.145729  -0.016816  -0.007865  -0.030606   0.171513
     17      -0.047177   0.037999  -0.038360  -0.083716  -0.069683  -0.088492
     18      -0.012410   0.197488  -0.001751   0.012995   0.029128   0.187056
     19       0.018883   0.103892   0.002667  -0.197700  -0.044181  -0.072503
     20       0.043011   0.011196   0.005545   0.090598  -0.100756   0.085799
     21       0.001207   0.021286   0.212225   0.337007  -0.207103   0.457107
     22      -0.001856   0.271846  -0.323272  -0.504840   0.315591  -0.325604
     23      -0.004271  -0.114345  -0.738379   0.315535   0.720051   0.273756
                 12         13         14         15         16         17    
      0       0.083428  -0.042927   0.062748   0.015676  -0.149436  -0.027225
      1      -0.119132   0.065725  -0.037159   0.052637  -0.100424   0.032154
      2       0.076392   0.149436   0.034351  -0.018663   0.001258  -0.022236
      3       0.065937   0.055047  -0.150333   0.206228   0.159429  -0.042002
      4       0.017431  -0.084065  -0.001839   0.014287   0.000517  -0.010610
      5       0.011278  -0.191291  -0.042319   0.053102   0.045724  -0.007580
      6      -0.433875   0.448426  -0.055943  -0.271753   0.529322   0.075390
      7      -0.147731   0.388396   0.028924  -0.179112   0.148170  -0.274439
      8      -0.140825  -0.211384  -0.133890   0.222571  -0.092770   0.574487
      9      -0.468545  -0.373433  -0.102898  -0.171374   0.449339   0.267703
     10      -0.090363  -0.505131   0.102325  -0.332796   0.272496  -0.572274
     11      -0.014549  -0.053647   0.030248  -0.124717   0.189637  -0.100966
     12       0.453652   0.092148   0.252623  -0.236328   0.179089   0.182627
     13       0.502512  -0.138372   0.276825  -0.359957   0.430870   0.357734
     14      -0.090131  -0.315952  -0.048689   0.090388  -0.139986  -0.102902
     15       0.012181  -0.011559  -0.001623  -0.035181  -0.022769   0.006356
     16       0.034960   0.017601   0.091068   0.026441   0.024839   0.015058
     17      -0.011872   0.040080  -0.040502  -0.021753  -0.017475  -0.004766
     18      -0.100664  -0.008249   0.096975  -0.059069  -0.045064   0.009968
     19       0.033093   0.012523  -0.120344  -0.044655  -0.012688   0.001447
     20      -0.043496   0.028641   0.080705   0.002579  -0.007416   0.002252
     21       0.073398   0.002828  -0.563566  -0.468736  -0.200182   0.040087
     22      -0.132708  -0.004505   0.521282   0.363510   0.146064  -0.029702
     23       0.079656  -0.011032  -0.390822  -0.294268  -0.121642   0.024558
                 18         19         20         21         22         23    
      0       0.013605  -0.032649  -0.026382   0.023143  -0.064144  -0.000430
      1      -0.021120  -0.065247  -0.043061  -0.035904   0.053903  -0.000498
      2      -0.047308   0.019268   0.011816  -0.081489  -0.041901   0.000098
      3       0.006612   0.025793   0.002765   0.000283  -0.000474   0.001876
      4      -0.009525   0.656277   0.001536  -0.000392   0.002948   0.000793
      5      -0.021690  -0.280951   0.000128  -0.000943  -0.001431   0.000192
      6       0.442634  -0.029037  -0.161398  -0.175189   0.067955  -0.000813
      7      -0.016348  -0.087954   0.535974   0.604313  -0.245987   0.001091
      8       0.197540   0.065159   0.302246   0.319217  -0.146231   0.000464
      9      -0.471546  -0.012725   0.104332  -0.112388  -0.055294  -0.000278
     10       0.063114  -0.111461   0.132703  -0.163708  -0.054956   0.000287
     11      -0.099072   0.010895  -0.619221   0.673848   0.277517  -0.001411
     12      -0.185529   0.099294   0.346979   0.008342   0.745509  -0.000656
     13       0.282399   0.220042  -0.171269  -0.007906  -0.356221   0.000280
     14       0.641028  -0.068502   0.175969  -0.010601   0.372731  -0.000311
     15      -0.000686   0.011783  -0.000216   0.000044   0.000268  -0.000433
     16       0.000935  -0.404141  -0.000185  -0.000071  -0.001104   0.000551
     17       0.002222   0.180994   0.000019  -0.000147   0.000563  -0.000367
     18      -0.000842   0.008895  -0.000316  -0.000028   0.000509   0.045176
     19       0.001137  -0.056743  -0.000122   0.000045  -0.000096   0.041932
     20       0.002583   0.027472  -0.000039   0.000102   0.000189  -0.005377
     21      -0.002202  -0.304035  -0.000052  -0.000165  -0.000539  -0.725648
     22       0.003109   0.252008   0.002257   0.000211  -0.001206  -0.679470
     23       0.006393  -0.198197  -0.001000   0.000483   0.000371   0.088975


-----------
IR SPECTRUM
-----------

 Mode   freq       eps      Int      T**2         TX        TY        TZ
       cm**-1   L/(mol*cm) km/mol    a.u.
----------------------------------------------------------------------------
  6:    101.25   0.000045    0.23  0.000140  ( 0.003066 -0.004631 -0.010436)
  7:    453.66   0.000776    3.92  0.000534  (-0.012964  0.015805 -0.010754)
  8:    582.84   0.008224   41.56  0.004403  ( 0.016772 -0.025828 -0.058780)
  9:    641.87   0.011111   56.15  0.005402  ( 0.070370  0.017038  0.012644)
 10:    714.46   0.023671  119.62  0.010339  (-0.025929  0.039558  0.090010)
 11:    933.14   0.000400    2.02  0.000134  ( 0.007061  0.008946 -0.001969)
 12:   1099.86   0.011655   58.90  0.003307  ( 0.050181 -0.017372  0.022067)
 13:   1171.16   0.002579   13.03  0.000687  ( 0.006669 -0.010130 -0.023240)
 14:   1344.25   0.050790  256.67  0.011791  (-0.099160  0.022215 -0.038269)
 15:   1460.33   0.007007   35.41  0.001497  ( 0.035763 -0.006612  0.013215)
 16:   1547.78   0.017357   87.72  0.003500  ( 0.057208  0.005456  0.014036)
 17:   1586.74   0.002807   14.18  0.000552  (-0.004125 -0.021562  0.008371)
 18:   1593.93   0.001644    8.31  0.000322  (-0.004479  0.007084  0.015864)
 19:   2020.66   0.089103  450.29  0.013761  (-0.018223  0.104060 -0.050991)
 20:   3192.87   0.000746    3.77  0.000073  (-0.004203 -0.007155  0.002013)
 21:   3256.37   0.002347   11.86  0.000225  ( 0.003748 -0.005863 -0.013284)
 22:   3302.50   0.002307   11.66  0.000218  (-0.011253  0.007152 -0.006339)
 23:   4119.13   0.021531  108.81  0.001631  (-0.034665 -0.020704 -0.000911)

* The epsilon (eps) is given for a Dirac delta lineshape.
** The dipole moment derivative (T) already includes vibrational overlap.

The first frequency considered to be a vibration is 6
The total number of vibrations considered is 18


--------------------------
THERMOCHEMISTRY AT 298.15K
--------------------------

Temperature         ...   298.15 K
Pressure            ...     1.00 atm
Total Mass          ...    60.05 AMU
Quasi RRHO          ...     True
Cut-Off Frequency   ...     1.00 cm^-1

Throughout the following assumptions are being made:
  (1) The electronic state is orbitally nondegenerate
  (2) There are no thermally accessible electronically excited states
  (3) Hindered rotations indicated by low frequency modes are not
      treated as such but are treated as vibrations and this may
      cause some error
  (4) All equations used are the standard statistical mechanics
      equations for an ideal gas
  (5) All vibrations are strictly harmonic

freq.     101.25  E(vib)   ...       0.46 
freq.     453.66  E(vib)   ...       0.16 
freq.     582.84  E(vib)   ...       0.11 
freq.     641.87  E(vib)   ...       0.09 
freq.     714.46  E(vib)   ...       0.07 
freq.     933.14  E(vib)   ...       0.03 
freq.    1099.86  E(vib)   ...       0.02 
freq.    1171.16  E(vib)   ...       0.01 
freq.    1344.25  E(vib)   ...       0.01 
freq.    1460.33  E(vib)   ...       0.00 
freq.    1547.78  E(vib)   ...       0.00 
freq.    1586.74  E(vib)   ...       0.00 
freq.    1593.93  E(vib)   ...       0.00 
freq.    2020.66  E(vib)   ...       0.00 
freq.    3192.87  E(vib)   ...       0.00 
freq.    3256.37  E(vib)   ...       0.00 
freq.    3302.50  E(vib)   ...       0.00 
freq.    4119.13  E(vib)   ...       0.00 

------------
INNER ENERGY
------------

The inner energy is: U= E(el) + E(ZPE) + E(vib) + E(rot) + E(trans)
    E(el)   - is the total energy from the electronic structure calculation
              = E(kin-el) + E(nuc-el) + E(el-el) + E(nuc-nuc)
    E(ZPE)  - the the zero temperature vibrational energy from the frequency calculation
    E(vib)  - the the finite temperature correction to E(ZPE) due to population
              of excited vibrational states
    E(rot)  - is the rotational thermal energy
    E(trans)- is the translational thermal energy

Summary of contributions to the inner energy U:
Electronic energy                ...   -227.87796400 Eh
Zero point energy                ...      0.06634662 Eh      41.63 kcal/mol
Thermal vibrational correction   ...      0.00152581 Eh       0.96 kcal/mol
Thermal rotational correction    ...      0.00141627 Eh       0.89 kcal/mol
Thermal translational correction ...      0.00141627 Eh       0.89 kcal/mol
-----------------------------------------------------------------------
Total thermal energy                   -227.80725903 Eh


Summary of corrections to the electronic energy:
(perhaps to be used in another calculation)
Total thermal correction                  0.00435835 Eh       2.73 kcal/mol
Non-thermal (ZPE) correction              0.06634662 Eh      41.63 kcal/mol
-----------------------------------------------------------------------
Total correction                          0.07070497 Eh      44.37 kcal/mol


--------
ENTHALPY
--------

The enthalpy is H = U + kB*T
                kB is Boltzmann's constant
Total thermal energy              ...   -227.80725903 Eh 
Thermal Enthalpy correction       ...      0.00094421 Eh       0.59 kcal/mol
-----------------------------------------------------------------------
Total Enthalpy                    ...   -227.80631482 Eh


Note: Only C1 symmetry has been detected, increase convergence thresholds 
      if your molecule has a higher symmetry. Symmetry factor of 1.0 is   
      used for the rotational entropy correction. 
 

Note: Rotational entropy computed according to Herzberg 
Infrared and Raman Spectra, Chapter V,1, Van Nostrand Reinhold, 1945 
Point Group:  C1, Symmetry Number:   1  
Rotational constants in cm-1:     0.392174     0.320025     0.182110 

Vibrational entropy computed according to the QRRHO of S. Grimme
Chem.Eur.J. 2012 18 9955 using a reference frequency of 100.0 cm-1


-------
ENTROPY
-------

The entropy contributions are T*S = T*(S(el)+S(vib)+S(rot)+S(trans))
     S(el)   - electronic entropy
     S(vib)  - vibrational entropy
     S(rot)  - rotational entropy
     S(trans)- translational entropy
The entropies will be listed as multiplied by the temperature to get
units of energy

Electronic entropy                ...      0.00000000 Eh      0.00 kcal/mol
Vibrational entropy               ...      0.00255494 Eh      1.60 kcal/mol
Rotational entropy                ...      0.01129463 Eh      7.09 kcal/mol
Translational entropy             ...      0.01814900 Eh     11.39 kcal/mol
-----------------------------------------------------------------------
Final entropy term                ...      0.03199857 Eh     20.08 kcal/mol

In case the symmetry of your molecule has not been determined correctly
or in case you have a reason to use a different symmetry number we print 
out the resulting rotational entropy values for sn=1,12:

 non-linear molecules -----------------------------------
|  sn= 1 | S(rot)=       0.01129463 Eh      7.09 kcal/mol|
|  sn= 2 | S(rot)=       0.01064017 Eh      6.68 kcal/mol|
|  sn= 3 | S(rot)=       0.01025734 Eh      6.44 kcal/mol|
|  sn= 4 | S(rot)=       0.00998571 Eh      6.27 kcal/mol|
|  sn= 5 | S(rot)=       0.00977503 Eh      6.13 kcal/mol|
|  sn= 6 | S(rot)=       0.00960288 Eh      6.03 kcal/mol|
|  sn= 7 | S(rot)=       0.00945734 Eh      5.93 kcal/mol|
|  sn= 8 | S(rot)=       0.00933126 Eh      5.86 kcal/mol|
|  sn= 9 | S(rot)=       0.00922005 Eh      5.79 kcal/mol|
|  sn=10 | S(rot)=       0.00912057 Eh      5.72 kcal/mol|
|  sn=11 | S(rot)=       0.00903058 Eh      5.67 kcal/mol|
|  sn=12 | S(rot)=       0.00894843 Eh      5.62 kcal/mol|
 linear molecules ---------------------------------------
|  Dinfh | S(rot)=       0.00693388 Eh      4.35 kcal/mol|
|  Cinfv | S(rot)=       0.00758834 Eh      4.76 kcal/mol|
 --------------------------------------------------------


-------------------
GIBBS FREE ENERGY
-------------------

The Gibbs free energy is G = H - T*S

Total enthalpy                    ...   -227.80631482 Eh 
Total entropy correction          ...     -0.03199857 Eh    -20.08 kcal/mol
-----------------------------------------------------------------------
Final Gibbs free energy         ...   -227.83831339 Eh

For completeness - the Gibbs free energy minus the electronic energy
G-E(el)                           ...      0.03965061 Eh     24.88 kcal/mol


Maximum memory used throughout the entire PROP-calculation: 25.9 MB

--------------------------------
SUGGESTED CITATIONS FOR THIS RUN
--------------------------------

Below you find a list of papers that are relevant to this ORCA run
We neither can nor want to force you to cite these papers, but we appreciate if you do
You receive ORCA, which is the product of decades of hard work by many enthusiastic individuals, for free
The only thing we kindly ask in return is that you cite our papers,
We deeply appreciate it, if you show your appreciation for ORCA by not just citing the generic ORCA reference.

Please note that relegating all ORCA citations to the supporting information does *not* help us.
SI sections are not indexed - citations you put there will not count into any citation statistics
But we need these citations in order to attract the funding resources that allow us to do what we are doing

Therefore, if you are a happy ORCA user, please consider citing a few of the papers listed below in the main body of your paper

In addition to the list printed below, the program has created the file acetate.bibtex that contains the list in bibtex format
You can import this file easily into all common literature databanks and citation aid programs


List of essential papers. We consider these as the minimum necessary citations

  1. Neese,F.
     Software update: the ORCA program system, version 5.0
     WIRES Comput. Molec. Sci., 2022 12(1)e1606
     doi.org/10.1002/wcms.1606

List of papers to cite with high priority. The work reported in these papers was absolutely
necessary for this run to complete.
Our perspective: the developers of density functionals and basis sets usually get cited in chemistry papers
Good! But without the algorithms to do something with them, the functionals or basis sets would not do anything.
Hence, in our opinion, the algorithm design and method developments papers are equally worthy of getting cited

  1. Bykov,D.; Petrenko,T.; Izsak,R.; Kossmann,S.; Becker,U.; Valeev,E.; Neese,F.
     Efficient implementation of the analytic second derivatives of Hartree-Fock and hybrid DFT energies: a detailed analysis of different approximations
     Molec. Phys., 2015 113 1961-1977
     doi.org/10.1080/00268976.2015.1025114
  2. Neese,F.
     The SHARK Integral Generation and Digestion System
     J. Comp. Chem., 2022  1-16
     doi.org/10.1002/jcc.26942

List of suggested additional citations. These are papers that are important in the 'surrounding' of 
of this run, or papers that preceded the highly important papers. If you like your results we are grateful for a citation.

  1. Neese,F.
     The ORCA program system
     WIRES Comput. Molec. Sci., 2012 2(1)73-78
     doi.org/10.1002/wcms.81
  2. Neese,F.
     Software update: the ORCA program system, version 4.0
     WIRES Comput. Molec. Sci., 2018 8(1)1-6
     doi.org/10.1002/wcms.1327
  3. Neese,F.; Wennmohs,F.; Becker,U.; Riplinger,C.
     The ORCA quantum chemistry program package
     J. Chem. Phys., 2020 152 Art. No. L224108
     doi.org/10.1063/5.0004608

List of optional additional citations

  1. Neese,F.
     Approximate second-order SCF convergence for spin unrestricted wavefunctions
     Chem. Phys. Lett., 2000 325(1-3)93-98
     doi.org/10.1016/s0009-2614(00)00662-x

Timings for individual modules:

Sum of individual times          ...      121.599 sec (=   2.027 min)
Startup calculation              ...        3.111 sec (=   0.052 min)   2.6 %
SCF iterations                   ...       46.715 sec (=   0.779 min)  38.4 %
Property integrals               ...        5.831 sec (=   0.097 min)   4.8 %
SCF Response                     ...       28.523 sec (=   0.475 min)  23.5 %
Property calculations            ...       16.337 sec (=   0.272 min)  13.4 %
SCF Gradient evaluation          ...       21.042 sec (=   0.351 min)  17.3 %
Geometry relaxation              ...        0.039 sec (=   0.001 min)   0.0 %
                             ****ORCA TERMINATED NORMALLY****
TOTAL RUN TIME: 0 days 0 hours 2 minutes 1 seconds 909 msec
