[Molden Format]
[Molpro variables]
_NUMVAR=  1070.000000000000    
_AVOGAD= 0.6022140760000000E+24
_BOLTZ= 0.1380649000000000E-22
_CLIGHTSI=  299792458.0000000    
_JOULE= 0.4359744722207100E-17
_JPCAL=  4.184000000000000    
_PLANCK= 0.6626070150000000E-33
_BOHR= 0.5291772109030000E-10
_ECHARG= 0.1602176634000000E-18
_ENULL= 0.8854187812800001E-11
_MU= 0.1660539066600000E-26
_EMASS= 0.9109383701500001E-30
_AMU2AU=  1822.888486217313    
_CLIGHT=  29979245800.00000    
_EV= 0.3674932217565494E-01
_KJOULE= 0.3808798847133432E-03
_KJOULE/MOL= 0.3808798847133432E-03
_CM= 0.4556335252912009E-05
_CM-1= 0.4556335252912009E-05
_DEB2SI= 0.3335640951981520E-29
_KCAL= 0.1593601437640628E-02
_KCAL/MOL= 0.1593601437640628E-02
_KELVIN= 0.3166811563455608E-05
_HERTZ= 0.1519829846057038E-15
_HZ= 0.1519829846057038E-15
_TOA= 0.5291772109030000    
_TOANG= 0.5291772109030000    
_TORAD= 0.1745329251994330E-01
_TOCM=  219474.6313631965    
_TODEBYE=  2.541746473194078    
_TOE= 0.4803204712570263E-09
_TOEV=  27.21138624598803    
_TOHERTZ=  6579683920501656.    
_TOHZ=  6579683920501656.    
_TOK=  315775.0248040668    
_TOKCAL=  627.5094740630558    
_TOKELVIN=  315775.0248040668    
_TOKJ=  2625.499639479825    
_TOKJOULE=  2625.499639479825    
_TOKG= 0.1660539066600000E-26
_ANG=  1.889726124625770    
_ANGSTROM=  1.889726124625770    
_RPAREF=  0.000000000000000    
_RPADISS=  0.000000000000000    
_IGNORE_UNDEF=  2.000000000000000    
_STRICTCHECK=  0.000000000000000    
!SEWARD=  0.000000000000000    
!MULTI=  0.000000000000000    
!DFMULTI=  0.000000000000000    
!NUMHESS=  0.000000000000000    
_SEW_ONEEL=  0.000000000000000    
_CPPDONE=FALSE
_DKROLL_DONE=  0.000000000000000    
_FNUC_DONE=  0.000000000000000    
_FOCKDONE=TRUE
_GRADONE=FALSE
_HESSDONE=TRUE
_INTDONE=TRUE
_SCFDONE=TRUE
_MODUL_BLOCK=FALSE
_MODUL_SLATER=TRUE
_MODUL_MRCC=FALSE
_MODUL_NBO6=FALSE
_MODUL_NECI=FALSE
_MODUL_AIMS=TRUE
_MODUL_HDF5=FALSE
_MODUL_GECCO=FALSE
_ISWINDOWS=FALSE
_MRCC_EXEC=
_FITC_AO_SAVED=FALSE
_FITC_MO_SAVED=FALSE
_LSTYP=SEWARD
_INTYP=INTS
_GEOMTYP=XYZ
_GRADTYP=ALASKA
_DIRECT=FALSE
_DKHO= -1.000000000000000    
_FNUC=  0.000000000000000    
_SYNCM=  0.000000000000000    
_BASIS=6-311G(D,P)
_ZCENTRE=MASS
_ZORIENT=  1.000000000000000    
_NELEC=  17.00000000000000    
!SPIN=  1.000000000000000    
_OPTCONV= 0.1209234286783831E-01
_QSDSTEP=  0.000000000000000    
_QSDIRC=  0.000000000000000    
_PROGRAM=FREQ
_CPUSTEP=  0.000000000000000    
_SYSSTEP=  0.000000000000000    
_WALLSTEP=  0.000000000000000    
!DFSCF=  0.000000000000000    
!SCSGRD=  0.000000000000000    
_NCEN=  5.000000000000000    
_CPUTOT=  19.55000000000000    
_CPUSORT= 0.7000000000000028E-01
_SYSSORT= 0.2000000000000002E-01
_WALLSORT= 0.7999999821186066E-01
_DFTEXFAC=  1.000000000000000    
_DMX= 0.6074258049924883    
_DMY= 0.5416909377873744E-01
_DMZ= 0.1592213361837784    
_DMX_SCF= 0.6074258049924883    
_DMY_SCF= 0.5416909377873744E-01
_DMZ_SCF= 0.1592213361837784    
_FREQUENCIES= 0.4036120214586044E-04
_HOMO=  9.100000000000000    
_EHOMO=-0.3521186079071744    
_LUMO=  10.10000000000000    
_ELUMO= 0.1550801616659008    
_ENERGY= -114.4449671233130    
_ENERGY_METHOD=HF
_ENERGY_BASIS=6-311G(D,P)
_GEOMETRY_METHOD=
_GEOMETRY_BASIS=
_ENUC=  35.62020922873164    
_FREQSTEP=  31.00000000000000    
_GRADENERG= -114.4449605152614    
_GRADEXFAC=  9999.000000000000    
_GRADMETHOD=  2.000000000000000    
_NMRMETHOD=  0.000000000000000    
_NMRMAGNET=  0.000000000000000    
_VIRIAL=-0.4678908169972488E-02
!GRID_FREEZE= -1.000000000000000    
!NEESE_INDEX=  0.000000000000000    
_ITERATIONS=  2.000000000000000    
_LASTNELEC=  17.00000000000000    
_LASTSPIN=  1.000000000000000    
_LASTSYM=  1.000000000000000    
_MPP_PROG=  0.000000000000000    
_MSNSTATES=  0.000000000000000    
_RS2PHASE=  0.000000000000000    
_NPROC_MPP=  1.000000000000000    
_NPROC_SMP=  6.000000000000000    
_NUMSTEP=  0.000000000000000    
_OPTCONVMX= 0.8840177382802345E-02
_OPTCONVRMS= 0.4030780955946102E-02
_OPTGRAD= 0.1667163323641267E-03
_OPTGRADMX= 0.1041605913561476E-03
_OPTGRADRMS= 0.5557211078804224E-04
!GMAXLAST= 0.1041605913561476E-03
!DMAXLAST= 0.8840177382802345E-02
!DELAST= 0.1258687063909747E-05
_OPTSTEP=  5.000000000000000    
_ORBITAL=  2100.200000000000    
_PI=  3.141592653589793    
_SEIG_MIN= 0.1179892881146581E-01
_SEWPROP=TRUE
_STATUS=  1.000000000000000    
_SYSTOT=  2.060000000000000    
_VERSION=  2024001.000000000    
_WALLTOT=  21.64000000000000    
_ZPE= 0.4016945847729151E-01
_DATE=18-Sep-24
_LASTORB=0
_OUTPUT=/home/lme/Theoretische_Chemie/Nomodeco/ase_integration/H2COH.molpro/run/H2COH_1.molpro/H2COH_1.out
_PGROUP=C1
_TIME=12:24:35
_LIBMOL=/usr/local/molpro/molpro_2024.1.0_sockets/lib/
_VIGRDC=  0.000000000000000    
!VIBCNT=  0.000000000000000    
!SURFREC=  0.000000000000000    
!XSURFREC=  0.000000000000000    
!XPOLYREC=  0.000000000000000    
!ROTREC=  0.000000000000000    
!POLYREC=  0.000000000000000    
!DIPREC=  0.000000000000000    
!DIP4DREC=  0.000000000000000    
!DIPROT=  0.000000000000000    
!DIP4DROT=  0.000000000000000    
!PTREC=  0.000000000000000    
!PT4DREC=  0.000000000000000    
!VSCFREC=  0.000000000000000    
!VCIREC=  0.000000000000000    
!PVCIREC=  0.000000000000000    
!VMP2REC=  0.000000000000000    
!VMCSCFREC=  0.000000000000000    
!VMRCIREC=  0.000000000000000    
!VIBSTATEREC=  0.000000000000000    
!VIBSTATECNT=  0.000000000000000    
!VIBINFO=  0.000000000000000    
!GAREC=  0.000000000000000    
!SCFORB=  21002.00000000000    
!DEFCORE=  2.000000000000000    
!SCORE=  0.000000000000000    
!NEWMOL=  0.000000000000000    
!NEWSYM=  0.000000000000000    
_SLFILES=slscratch
_NGSSTO=  9.000000000000000    
_SIN=SIN
_COS=COS
_TAN=TAN
_ACOS=ACOS
_ASIN=ASIN
_ATAN=ATAN
_COSH=COSH
_SINH=SINH
_TANH=TANH
_ABS=ABS
_MOD=MOD
_ERF=ERF
_REFC=REFC
_ERFC=ERFC
_HYPOT=HYPOT
_J0=J0
_J1=J1
_JN=JN
_GAMMA=GAMMA
_LGAMMA=LGAMMA
_Y0=Y0
_Y1=Y1
_YN=YN
_EXP=EXP
_LOG=LOG
_LOG10=LOG10
_SQRT=SQRT
_INT=INT
_NINT=NINT
_MAX=MAX
_MIN=MIN
_COSMO=  0.000000000000000    
_COSMOIT=  0.000000000000000    
_COSMOES=  0.000000000000000    
_COSMOEDS=  0.000000000000000    
_COSMOEC=  0.000000000000000    
_COSMOEDCORR=  0.000000000000000    
_FEPSI=  1.000000000000000    
_SL_IsMM=  0.000000000000000    
_SL_NSYM=  1.000000000000000    
_SL_System_BitSw=  0.000000000000000    
_SL_Unique_atoms=  0.000000000000000    
_SL_GRAD=  0.000000000000000    
_SL_MAXUPD_Hess=  5.000000000000000    
_SL_N_PRINT_COD=  5.000000000000000    
_SL_PRINT_CODES=  0.000000000000000    
_SL_BasType=  0.000000000000000    
_SL_Energy_Pred=  0.000000000000000    
_SL_New_Coords=  0.000000000000000    
_SL_Total_Nuclea=  0.000000000000000    
_SL_Highest_Mltp=  0.000000000000000    
_SL_Ref_Geom=  0.000000000000000    
_SL_Symmetry_ope=  1.000000000000000    
_SL_agrad=  0.000000000000000    
_SL_GrdMax=  0.000000000000000    
_SL_GrdNorm=  0.000000000000000    
_SL_GrdRMS=  0.000000000000000    
_SL_Hss_Q=  0.000000000000000    
_SL_Hss_X=  0.000000000000000    
_SL_BMxOld=  0.000000000000000    
_SL_KtB=  0.000000000000000    
_SL_TROld=  0.000000000000000    
_SL_No_of_Intern=  0.000000000000000    
_SL_Hess=  0.000000000000000    
_SL_K=  0.000000000000000    
!LATTICE= -1.000000000000000    
!NEWLATTICE=  0.000000000000000    
!LATGRAD_VAR=FALSE
!SEW_LATTICE=  1.000000000000000    
!AIC_ONEEL=  0.000000000000000    
!LOCAL=  0.000000000000000    
!SAVEDOM= -1.000000000000000    
!RESTDOM= -1.000000000000000    
!SAVEDOM_HF= -1.000000000000000    
!RESTDOM_HF= -1.000000000000000    
!HESSREC=  5300.200000000000    
!FREQREC=  5400.200000000000    
!NMODREC=  5450.200000000000    
!GTASKS=  0.000000000000000    
!HTASKS=  0.000000000000000    
!SAVEDOM_EOM= -1.000000000000000    
!RESTDOM_EOM= -1.000000000000000    
!GRADSTATE= -1.000000000000000    
!DEBUG=  0.000000000000000    
!CFIT_CPHF=  0.000000000000000    
!RDOMAUX_CPHF=  0.000000000000000    
!THRAO_CPHF= 0.1000000000000000E-11
!THRMO_CPHF= 0.1000000000000000E-11
!THROV_CPHF= 0.1000000000000000E-13
!THRSW_CPHF= 0.1000000000000000E-11
!THRPROD_CPHF= 0.1000000000000000E-11
!THRAOPR_CPHF= 0.1000000000000000E-11
!CFIT_SCFGRD=  0.000000000000000    
!RDOMAUX_SCFGRD=  0.000000000000000    
!THRAO_SCFGRD= 0.1000000000000000E-11
!THRMO_SCFGRD= 0.1000000000000000E-11
!THROV_SCFGRD= 0.1000000000000000E-13
!THRSW_SCFGRD= 0.1000000000000000E-11
!THRPROD_SCFGRD= 0.1000000000000000E-11
!THRAOPR_SCFGRD= 0.1000000000000000E-11
!LOCFIT_SCF=  0.000000000000000    
!LOCFIT_MP2=  0.000000000000000    
_RIDOM=  0.000000000000000    
!CC2_METHOD=  0.000000000000000    
_BASIS2006=FALSE
_SVDDEL= -1.000000000000000    
_SVDDELA= -1.000000000000000    
_SVDDELP= -1.000000000000000    
_SVDDELF= -1.000000000000000    
_SVDDELS= -1.000000000000000    
_SVDDEL_ABS= -1.000000000000000    
_SVDDELA_ABS= -1.000000000000000    
_SVDDELP_ABS= -1.000000000000000    
_SVDDELF_ABS= -1.000000000000000    
_SVDDELS_ABS= -1.000000000000000    
_MAXBASIS=  0.000000000000000    
!OPT_CONICAL=  0.000000000000000    
!CLEARSP_JGRID=  0.000000000000000    
_GRDHYBR=  0.000000000000000    
_STATEGRAD=  1.000000000000000    
_4EXT_NDISKS=  1.000000000000000    
!EMBEDFLAG=  1.000000000000000    
!EMBED=FALSE
!EMBED_F12=FALSE
!EMBEDNUC=  0.000000000000000    
_EMBEDENERGY=  0.000000000000000    
!EMBED_DFC=FALSE
!NUM_VOIDS=  0.000000000000000    
_IBODY=  0.000000000000000    
_EMBE_CORR=  0.000000000000000    
!EMBED_PROJ=FALSE
!EMB_PROJ_ZMU=  1000000.000000000    
!CORRECTION_HF=  0.000000000000000    
!EMBED_AORB=  0.000000000000000    
!EMBED_NACORR=  0.000000000000000    
!EMBED_MP2=FALSE
!EMBED_TRUNC_PERTURBATION=FALSE
!EMBED_FROZEN=  0.000000000000000    
!EMBED_ACTIVE=  0.000000000000000    
_CHANGE_BASIS=FALSE
_RESTORE_BASIS=FALSE
_FIX_EMBED_GUESS=FALSE
_EMBED_SCF=FALSE
_NEOBAS=FALSE
_NEOOVE=FALSE
_PRINEO=FALSE
_HUZINAGA_T=FALSE
_HUZINAGA_F=FALSE
_HUZINAGA=FALSE
_HUZINAGA_CORRECT=FALSE
!FASTLATGRAD=  1.000000000000000    
!FASTVLAMBDA= -1.000000000000000    
!IFORCE= -1.000000000000000    
!USESYM= -1.000000000000000    
_SINDEX=  0.000000000000000    
_AVDOM_OSV=  0.000000000000000    
_AVDOM_PNO=  0.000000000000000    
_AVDOM_PNOCC=  0.000000000000000    
_AVDOM_TNO=  0.000000000000000    
_AVDOM_TNOIT=  0.000000000000000    
_AVDOM_PAO=  0.000000000000000    
_AVDOM_LMO=  0.000000000000000    
_CC2OSV_FLAG=  0.000000000000000    
_EOMCCSD_CONV=FALSE
_TMADC2_FLAG=FALSE
_PROPADC2_FLAG=FALSE
_LEN_VirQ=  0.000000000000000    
_GRDCC2LR_FLAG=FALSE
_GRDADC2_FLAG=FALSE
_RO_VGLOBAL=  0.000000000000000    
_OPT=FALSE
_FREQ=FALSE
_HESS=FALSE
_CMRCC_callName=EMPTY
_CMRCC_callCount=  0.000000000000000    
_GECCO_CIROOT=  1.000000000000000    
_SYM_CATION=  1.000000000000000    
_MON_A=FALSE
_MON_B=FALSE
_MAXGEOM=  100.0000000000000    
!MAXGEOM=  100.0000000000000    
_NCORE=  0.000000000000000    
_NLARGECORE=  0.000000000000000    
GX1= 0.1881797183020471E-01
GY1=-0.5489741703525696E-01
GZ1= 0.7228456671321762    
GX2=-0.6375615682663516E-01
GY2= 0.2091243123379977E-01
GZ2=-0.6293138705488249    
GX3= 0.7793262149121519    
GY3=-0.1344474088809146    
GZ3= -1.014589601086713    
GX4= 0.9248433467107808    
GY4= 0.3021343305373829    
GZ4=  1.187851835079529    
GX5=-0.9163757200081104    
GY5= 0.1540718647968019    
GZ5=  1.207603209505798    
CX1= 0.3556081298000967E-01
CY1=-0.1037410831460009    
CZ1=  1.365980341252217    
OX2=-0.1204816751610301    
OY2= 0.3951876763195136E-01
OZ2= -1.189230861765475    
HX3=  1.472713107925211    
HY3=-0.2540687809505071    
HZ3= -1.917296474947201    
HX4=  1.747700633465691    
HY4= 0.5709511375628101    
HZ4=  2.244714644934448    
HX5= -1.731699138072076    
HY5= 0.2911536279763261    
HZ5=  2.282039333185033    
[Atoms] Angs
C     1    6         0.0188179718       -0.0548974170        0.7228456671
O     2    8        -0.0637561568        0.0209124312       -0.6293138705
H     3    1         0.7793262149       -0.1344474089       -1.0145896011
H     4    1         0.9248433467        0.3021343305        1.1878518351
H     5    1        -0.9163757200        0.1540718648        1.2076032095
[GTO]
   1 0
 s    6  1.00
  0.4563240000D+04  0.1966650249D-02
  0.6820240000D+03  0.1523060193D-01
  0.1549730000D+03  0.7612690966D-01
  0.4445530000D+02  0.2608010331D+00
  0.1302900000D+02  0.6164620782D+00
  0.1827730000D+01  0.2210060280D+00
 s    3  1.00
  0.2096420000D+02  0.1146600807D+00
  0.4803310000D+01  0.9199996477D+00
  0.1459330000D+01 -0.3030682134D-02
 s    1  1.00
  0.4834560000D+00  0.1000000000D+01
 s    1  1.00
  0.1455850000D+00  0.1000000000D+01
 p    3  1.00
  0.2096420000D+02  0.4024869267D-01
  0.4803310000D+01  0.2375939567D+00
  0.1459330000D+01  0.8158538515D+00
 p    1  1.00
  0.4834560000D+00  0.1000000000D+01
 p    1  1.00
  0.1455850000D+00  0.1000000000D+01
 d    1  1.00
  0.6260000000D+00  0.1000000000D+01
  
   2 0
 s    6  1.00
  0.8588500000D+04  0.1895150083D-02
  0.1297230000D+04  0.1438590063D-01
  0.2992960000D+03  0.7073200310D-01
  0.8737710000D+02  0.2400010105D+00
  0.2567890000D+02  0.5947970261D+00
  0.3740040000D+01  0.2808020123D+00
 s    3  1.00
  0.4211750000D+02  0.1138890124D+00
  0.9628370000D+01  0.9208111006D+00
  0.2853320000D+01 -0.3274470358D-02
 s    1  1.00
  0.9056610000D+00  0.1000000000D+01
 s    1  1.00
  0.2556110000D+00  0.1000000000D+01
 p    3  1.00
  0.4211750000D+02  0.3651139738D-01
  0.9628370000D+01  0.2371529830D+00
  0.2853320000D+01  0.8197019412D+00
 p    1  1.00
  0.9056610000D+00  0.1000000000D+01
 p    1  1.00
  0.2556110000D+00  0.1000000000D+01
 d    1  1.00
  0.1292000000D+01  0.1000000000D+01
  
   3 0
 s    3  1.00
  0.3386500000D+02  0.2549381454D-01
  0.5094790000D+01  0.1903731086D+00
  0.1158790000D+01  0.8521614860D+00
 s    1  1.00
  0.3258400000D+00  0.1000000000D+01
 s    1  1.00
  0.1027410000D+00  0.1000000000D+01
 p    1  1.00
  0.7500000000D+00  0.1000000000D+01
  
   4 0
 s    3  1.00
  0.3386500000D+02  0.2549381454D-01
  0.5094790000D+01  0.1903731086D+00
  0.1158790000D+01  0.8521614860D+00
 s    1  1.00
  0.3258400000D+00  0.1000000000D+01
 s    1  1.00
  0.1027410000D+00  0.1000000000D+01
 p    1  1.00
  0.7500000000D+00  0.1000000000D+01
  
   5 0
 s    3  1.00
  0.3386500000D+02  0.2549381454D-01
  0.5094790000D+01  0.1903731086D+00
  0.1158790000D+01  0.8521614860D+00
 s    1  1.00
  0.3258400000D+00  0.1000000000D+01
 s    1  1.00
  0.1027410000D+00  0.1000000000D+01
 p    1  1.00
  0.7500000000D+00  0.1000000000D+01


[MO]
 Sym=      1.1
 Ene=     -20.5675
 Spin= Alpha
 Occup=    2.000000
1 -0.000003272481611
2 -0.000037191060802
3 0.000136221679536
4 0.000432541533720
5 -0.000015214339257
6 0.000000942558116
7 -0.000040592386766
8 0.000020108787115
9 -0.000003054911358
10 -0.000262638106439
11 -0.000173194428136
12 0.000031809858985
13 -0.000205737558563
14 -0.000075239005217
15 -0.000055735122942
16 0.000130974128159
17 -0.000003068674154
18 -0.000034160314943
19 -0.000012469915798
20 0.55143653478358
21 0.47166421547136
22 0.005660223627085
23 -0.000823955770306
24 0.001465153725082
25 -0.000311788991664
26 0.000901973108786
27 -0.000536677421041
28 0.000115580236832
29 -0.000316311222369
30 0.000140684483978
31 -0.000012904574790
32 -0.000169946720623
33 0.000006191392768
34 0.000099969456570
35 -0.000106160849338
36 0.000031474296220
37 0.000037754462302
38 0.000007177804945
39 0.000210100110095
40 0.000065615540610
41 0.000078392454062
42 -0.000032168415459
43 0.000003269700391
44 0.000082195036887
45 0.000005569424537
46 0.000020710801471
47 0.000013058436936
48 -0.000015837981627
49 -0.000022897619982
50 0.000018778948803
51 0.000018583488099
52 -0.000112226806856
53 -0.000047842511917
54 0.000007602049319
55 -0.000000737962904
56 0.000003094440320
 Sym=      2.1
 Ene=     -11.2651
 Spin= Alpha
 Occup=    2.000000
1 0.56343732031335
2 0.46664606537215
3 0.003905608378813
4 -0.000608693247739
5 -0.000008603423667
6 0.000484463711989
7 -0.001171580596668
8 -0.000040403155178
9 0.000183644483775
10 0.000818545687287
11 -0.000006394677167
12 0.000133310937556
13 -0.000240880410114
14 0.000332303089003
15 -0.000173730119868
16 -0.000158572969136
17 0.000027859564854
18 -0.000034967270555
19 0.000102742991382
20 -0.000090146225960
21 -0.000164643301642
22 0.000438982332473
23 0.000112281273984
24 0.000018661573270
25 -0.000051570353777
26 0.000149655704044
27 0.000018253252304
28 -0.000078814886452
29 0.000602569923850
30 0.000049637865943
31 -0.000088989960594
32 0.000019637476807
33 -0.000127473289207
34 -0.000085569915976
35 0.000213043205183
36 -0.000000380210219
37 0.000052626411124
38 -0.000007100739068
39 0.000013128563407
40 -0.000024694018322
41 -0.000057254213152
42 -0.000037335004351
43 -0.000004526666779
44 0.000010618682118
45 0.000354697913150
46 -0.000167131274427
47 0.000320601419059
48 0.000081551897883
49 0.000070601708952
50 0.000018191468069
51 0.000347354761389
52 -0.000202439097423
53 0.000318592266353
54 -0.000104143890752
55 0.000058296633786
56 0.000029994743713
 Sym=      3.1
 Ene=      -1.3908
 Spin= Alpha
 Occup=    2.000000
1 -0.037475443655591
2 -0.061270313806084
3 0.15132995259432
4 0.022012455602270
5 -0.000949024660317
6 0.005499032087311
7 -0.047168158802950
8 -0.000050756753092
9 0.004960536985262
10 -0.086439973985980
11 0.004707361490568
12 0.000109179219505
13 0.006002465009540
14 -0.017349153399092
15 -0.011988609173625
16 0.029337762572717
17 -0.000426143091655
18 0.000533726415940
19 -0.003746427181867
20 -0.11041972134128
21 -0.18450276433800
22 0.52459172825347
23 0.37706437379406
24 0.028797011690833
25 -0.006597506292539
26 0.022353018356049
27 0.048521089721797
28 -0.011165869781266
29 0.039884247167271
30 0.015504537242959
31 -0.003528044645781
32 0.024443752082017
33 0.002037702858254
34 -0.008055490236601
35 0.006017787378347
36 -0.002232946850155
37 -0.001743544850763
38 -0.000056269897434
39 0.090634129410215
40 0.075270472917764
41 -0.003887617715452
42 -0.023029924136543
43 0.004130754424564
44 0.013904677938226
45 0.014308001169071
46 0.022548962057561
47 -0.003605979925160
48 -0.005804682241062
49 -0.001753393690761
50 -0.005415385556519
51 0.013790608855222
52 0.024815229803211
53 -0.002202227722396
54 0.006013878925473
55 -0.000929838136831
56 -0.005436889270885
 Sym=      4.1
 Ene=      -0.8918
 Spin= Alpha
 Occup=    2.000000
1 -0.091050299310890
2 -0.15187885026983
3 0.40042523549858
4 0.24620909463609
5 -0.012584459640759
6 0.030061241557616
7 0.012009196981893
8 -0.019254016442534
9 0.043540938924435
10 -0.002605269026244
11 0.002309172350997
12 0.025850593520786
13 0.017507126632765
14 0.004477983540987
15 -0.012555407877689
16 0.008077424336702
17 0.000633812125672
18 0.003881503720261
19 0.000750387956598
20 0.026628318841246
21 0.044784211174805
22 -0.12900908881101
23 -0.13048203662276
24 -0.048455366095113
25 0.008128008866265
26 0.11590953833442
27 -0.077162777040716
28 0.013918173773675
29 0.18269029750025
30 -0.033765862355389
31 0.001300242210694
32 0.10152749259494
33 -0.012985633868370
34 -0.001380073192885
35 0.014365707061255
36 0.002634976355826
37 0.008549052256340
38 -0.001003231044683
39 -0.093998919950085
40 -0.11343760691767
41 -0.018822931915964
42 0.020153027217060
43 -0.003831602702776
44 -0.003128154628119
45 0.085381335109835
46 0.11910645829004
47 0.003658786019597
48 -0.017130179015423
49 -0.004278889865535
50 -0.008065413321159
51 0.094461586451606
52 0.13560772093387
53 0.007009132687767
54 0.019714589542048
55 -0.002615246107331
56 -0.008559816246614
 Sym=      5.1
 Ene=      -0.7101
 Spin= Alpha
 Occup=    2.000000
1 -0.023616980083482
2 -0.039102846887742
3 0.098870388003603
4 0.095093906437866
5 0.091975738670116
6 0.021180557485809
7 0.085782173094144
8 0.14566290428963
9 0.031830050993231
10 0.13819051492645
11 0.078570265874879
12 0.020495714078055
13 0.046939126733030
14 0.019056506760184
15 0.003909761539168
16 -0.022966268299352
17 0.010537567021344
18 -0.012323159945579
19 0.007687770284894
20 0.024319052373097
21 0.041419395518004
22 -0.12704726180773
23 -0.17493500942567
24 0.16494305374548
25 -0.007797489469808
26 -0.077721163302559
27 0.25372764163547
28 -0.010415106614263
29 -0.12228199897455
30 0.17309107893073
31 -0.007771011956978
32 -0.064046437688926
33 0.017478362333813
34 -0.005002874619525
35 -0.012475487714288
36 -0.003945480310590
37 0.000432609404265
38 0.002871525829958
39 0.12274106281783
40 0.18293264200970
41 0.030114168599712
42 -0.019673573255415
43 0.006191726002636
44 0.014605887373502
45 0.11602734550540
46 0.16693762585683
47 0.040635523793254
48 -0.014605546677228
49 -0.006607150726452
50 -0.004719198541410
51 0.000571961420012
52 0.010284704090847
53 0.000619758443926
54 0.002386341075492
55 0.002092569491198
56 0.002665717704406
 Sym=      6.1
 Ene=      -0.6205
 Spin= Alpha
 Occup=    2.000000
1 0.005428413132162
2 0.008483144123972
3 -0.018329082408083
4 -0.052036576729609
5 0.10379955690097
6 -0.013280640210615
7 -0.13064986916522
8 0.16410519088864
9 -0.021574625406215
10 -0.22021026213487
11 0.11261738794821
12 -0.017882732788214
13 -0.091006891163699
14 -0.028926066064681
15 -0.008158826098593
16 0.037084892163273
17 0.009154321679141
18 0.004747296014982
19 -0.006995359224368
20 0.013743157992877
21 0.023310259642359
22 -0.070794535310373
23 -0.10853894015830
24 0.070918248041388
25 -0.014106515843936
26 0.17197979507283
27 0.10894438653036
28 -0.021959503733805
29 0.26500894925809
30 0.094886210101581
31 -0.017176521909249
32 0.20811445370955
33 -0.003888247154490
34 -0.006251618507370
35 0.010139865661860
36 -0.000920097994709
37 0.017688067215432
38 -0.003986755809869
39 -0.026871241201108
40 -0.027943744088944
41 -0.036427841314114
42 0.010113121037899
43 -0.001993328286019
44 0.017617088457015
45 0.013313720935070
46 0.016181570289120
47 0.004554929342266
48 0.000858419604859
49 -0.002533881680613
50 -0.007366237847040
51 -0.13320520735231
52 -0.18584030950998
53 -0.057294670999253
54 -0.014078684826205
55 0.003346888408303
56 0.001955127757595
 Sym=      7.1
 Ene=      -0.5611
 Spin= Alpha
 Occup=    2.000000
1 0.010738694622379
2 0.018220976769101
3 -0.051297837773881
4 -0.022693023238861
5 0.055839644936434
6 0.063481730461264
7 0.008914794969456
8 0.084037016784275
9 0.10186804659504
10 0.018063652829778
11 0.032557425996944
12 0.066430965576900
13 -0.005950284233506
14 0.001777863304229
15 0.005523379333276
16 -0.007301242637505
17 0.005204025614178
18 0.010719988233211
19 -0.028982725299040
20 -0.014427330523200
21 -0.024563601879384
22 0.074495759622568
23 0.11969797580822
24 -0.041670037508489
25 0.25401344543837
26 -0.020764647564521
27 -0.061218245079550
28 0.39022248341373
29 -0.030021097046172
30 -0.040967055240760
31 0.37794943926868
32 -0.042251452626296
33 -0.001174681725832
34 -0.000165639245800
35 0.001340320971632
36 0.013166679030266
37 0.001716273206751
38 0.012259098992607
39 -0.045267328061595
40 -0.085081591981817
41 -0.013532978669901
42 0.011136302749533
43 0.024244661523228
44 -0.009878361324076
45 0.046753633143121
46 0.073153255449783
47 0.037373581845023
48 -0.004896835331914
49 -0.000216030844934
50 -0.003068348004304
51 -0.043147366034589
52 -0.086031979489789
53 -0.027617898323707
54 -0.004169714399618
55 0.005266935673016
56 0.005486881977631
 Sym=      8.1
 Ene=      -0.5079
 Spin= Alpha
 Occup=    2.000000
1 -0.001160351401282
2 -0.002149398718244
3 0.008171899292780
4 -0.022669669308431
5 -0.12756615401513
6 0.012272678881490
7 -0.034729598486517
8 -0.19300579744183
9 0.018467978872907
10 -0.061264345835918
11 -0.088177214375594
12 0.018365271256495
13 -0.006015822680653
14 -0.007563702685913
15 -0.002558834346216
16 0.010122537032128
17 -0.011971690952237
18 -0.033047386694438
19 -0.016054913508788
20 0.019903035521863
21 0.033873953128434
22 -0.10297696671404
23 -0.17820659496282
24 0.16868106704187
25 0.10186323626484
26 0.072574791972837
27 0.25300010754058
28 0.15620248581555
29 0.10854763688654
30 0.23347430064054
31 0.16697537508850
32 0.12546666744728
33 0.009131126299433
34 -0.009773420891627
35 0.000642294592193
36 0.002222448457630
37 0.000696328615208
38 0.003725873683623
39 0.069513262887773
40 0.13186463182962
41 0.021837380272057
42 -0.005708141208315
43 0.015414261659677
44 0.017087423517704
45 -0.11600633568286
46 -0.21477715970908
47 -0.095992257435378
48 0.008418382807105
49 0.007435863223034
50 0.007528394957166
51 0.092164881670717
52 0.17633568334373
53 0.059561743782721
54 0.009045269478187
55 -0.003008696131545
56 -0.011346241463965
 Sym=      9.1
 Ene=      -0.3521
 Spin= Alpha
 Occup=    1.000000
1 0.028005650883583
2 0.048773284343772
3 -0.14310320900666
4 -0.29785028645967
5 -0.020974830576177
6 0.25235868477916
7 -0.028144499707640
8 -0.036049121602429
9 0.42350910440746
10 -0.048288810429896
11 -0.050775238307969
12 0.45265641019748
13 -0.043091829453979
14 0.005497581695909
15 -0.015736600661694
16 0.010239018965784
17 0.004602877229991
18 0.001037756110924
19 0.017172447510315
20 -0.002055125454761
21 -0.003508393166691
22 0.010107514170740
23 0.013269245752875
24 -0.000390857158242
25 -0.10951704660594
26 0.020839884873597
27 -0.001376691845798
28 -0.15342975886865
29 0.030856540740418
30 -0.002191585622014
31 -0.26169668094840
32 0.046406974065281
33 -0.000112829008275
34 -0.000794304550268
35 0.000907133558543
36 -0.004454042218069
37 -0.000851743610331
38 0.009826656235130
39 0.011064702933424
40 0.026635590219592
41 0.001697755518961
42 -0.003465014443289
43 -0.011192512750874
44 0.002524418043232
45 0.030389844573872
46 0.093597339566367
47 0.056224472853285
48 -0.007968846345412
49 0.017765427925978
50 -0.004336891963059
51 0.024394491485971
52 0.065939185635267
53 0.030477983427653
54 0.004236944268038
55 0.018189755314442
56 -0.003253342572583
 Sym=     10.1
 Ene=       0.1551
 Spin= Alpha
 Occup=    0.000000
1 0.020024434668078
2 0.031697353400773
3 -0.021506014959885
4 -1.14563811564072
5 -0.034271149790066
6 -0.015971558987025
7 -0.055123961716925
8 -0.020438702453994
9 -0.013940371785858
10 -0.055473645760684
11 -0.30706221820576
12 -0.16718975571199
13 -0.16116244050480
14 0.003491095698841
15 0.009365562093531
16 -0.012856657792371
17 -0.001360811390414
18 0.009882041772348
19 -0.001517257837190
20 0.023659437610422
21 0.039220817213965
22 -0.093153974421193
23 -0.47651358211837
24 -0.056539036836031
25 0.015789603519670
26 0.037389904167202
27 -0.082358214000189
28 0.018428489286286
29 0.030528960171316
30 -0.13406450203629
31 0.058338393513858
32 0.22196254468730
33 -0.002127436218364
34 -0.001003412935223
35 0.003130849153587
36 0.001353707233402
37 -0.002343359694210
38 -0.001033954660675
39 0.039856224679678
40 -0.11772954758389
41 1.19609129328185
42 0.012114019862193
43 -0.001252493294445
44 -0.011164282748507
45 0.002774073705675
46 -0.032598338838008
47 1.01356119338484
48 0.011175874678151
49 0.003701954377255
50 -0.006950622396874
51 0.003104865817981
52 -0.009308434386134
53 0.27208548611232
54 0.001268695152120
55 0.000587090926454
56 -0.008820077037642
 Sym=     11.1
 Ene=       0.1878
 Spin= Alpha
 Occup=    0.000000
1 0.040352000606931
2 0.065653736830699
3 -0.096547520578180
4 -1.48507972760164
5 0.024532972827734
6 -0.037158909853450
7 -0.030518003695450
8 0.011082443214145
9 -0.035758315528992
10 0.009347097068034
11 0.27891219600543
12 -0.25648889140770
13 -0.32394947002181
14 0.007243721888572
15 -0.010649989926132
16 0.003406268037560
17 0.003743876930713
18 -0.004903307599158
19 0.003135501479672
20 -0.018106167779991
21 -0.030137539415726
22 0.065531198687475
23 0.43838464830304
24 0.041665011817471
25 -0.001505156447724
26 0.006174504753447
27 0.061057868388124
28 -0.005284727243556
29 0.028710218683764
30 0.12899925636533
31 0.005683089950790
32 -0.006251509532414
33 0.004568426350623
34 -0.000976666688530
35 -0.003591759662093
36 -0.000839867728509
37 0.003399893656853
38 -0.002678402891961
39 -0.029418717192572
40 0.051054224749937
41 -0.94446290783371
42 0.001408231885723
43 0.001211505560991
44 0.008066076523325
45 0.020388813266619
46 -0.10378856499618
47 0.97577287903267
48 0.005481321183098
49 0.001907283102689
50 0.010599347178384
51 0.020587036380964
52 -0.069075450990416
53 1.48185602976867
54 -0.011346440677804
55 0.000937032156081
56 0.010294568830532
 Sym=     12.1
 Ene=       0.2277
 Spin= Alpha
 Occup=    0.000000
1 -0.002936999821878
2 -0.005059952295454
3 0.008007045026243
4 0.060148749860379
5 0.13219248388632
6 0.017383213711833
7 -0.018212692890359
8 0.060202552264686
9 0.017516896716742
10 -0.028163482212190
11 1.08683305139061
12 0.10721571932280
13 -0.12615975098435
14 0.003286294060634
15 0.001506182941104
16 -0.004792477001738
17 -0.015537930747669
18 -0.029583475378713
19 -0.002313350253108
20 0.010983287085214
21 0.018257642159460
22 -0.040451655028744
23 -0.28421732940242
24 -0.030738867678933
25 0.000862078603736
26 -0.004626911748639
27 -0.032415230777283
28 0.003841273049199
29 -0.011386406896207
30 -0.17466211505953
31 -0.005643187952489
32 -0.007847852287325
33 -0.001946292561252
34 0.001736008674390
35 0.000210283886862
36 -0.000905206778354
37 0.007732650598014
38 0.000891980785188
39 0.001446385104882
40 -0.058309485903299
41 0.45470536850950
42 -0.000847733942731
43 -0.002838893657660
44 -0.001894176854192
45 -0.009805184316941
46 0.18729216101309
47 -1.90955026165758
48 -0.028072667199931
49 -0.012513456176280
50 -0.016694263088287
51 0.004379776542215
52 -0.16978063121388
53 1.83381993132581
54 -0.031921347578457
55 0.009937106533721
56 0.010056053421373
 Sym=     13.1
 Ene=       0.3627
 Spin= Alpha
 Occup=    0.000000
1 0.017352797511030
2 0.029398339233373
3 -0.015431679894029
4 -1.04692244838446
5 0.011906036915198
6 0.016746059046243
7 0.078816576048266
8 0.006831849170568
9 0.049333374827607
10 0.085951876098123
11 0.14249853209748
12 0.008444553200162
13 1.95333015004790
14 -0.007742599044372
15 -0.006507627947743
16 0.014250226992115
17 -0.001396033183392
18 0.004087327218170
19 0.001073046667475
20 -0.027780381932796
21 -0.045447527487179