
 Working directory              : /tmp/lme/molpro.INzyxAesUe/
 Global scratch directory       : /tmp/lme/molpro.INzyxAesUe/
 Wavefunction directory         : /home/lme/wfu/
 Main file repository           : /tmp/lme/molpro.INzyxAesUe/

 id        : liedlgroup

 Nodes     nprocs
 sv1-c724     1
 GA implementation: MPI file
 GA implementation (serial work in mppx): MPI file

 Using customized tuning parameters: mindgm=1; mindgv=20; mindgc=4; mindgr=1; noblas=0; minvec=7
 default implementation of scratch files=df  


 Variables initialized (1042), CPU time= 0.00 sec
 
                orient,mass
                geometry=initial.xyz
 Including file /home/lme/Theoretische_Chemie/Nomodeco/ase_integration/C2H3.molpro/run/C2H3_1.molpro/initial.xyz
                mass, iso
                basis=6-311g(d,p)
                {hf
                start, atden}
                optg;
                {frequencies, symm=auto, print=0, analytical}
                put, molden, C2H3.molden
 Commands initialized (847), CPU time= 0.01 sec, 718 directives.
 Default parameters read. Elapsed time= 0.07 sec

 Checking input...
 Passed
1


                                         ***  PROGRAM SYSTEM MOLPRO  ***
                                       Copyright, TTI GmbH Stuttgart, 2015
                                    Version 2024.1 linked Wed Jan 31 11:42:09 2024


 **********************************************************************************************************************************
 LABEL *                                                                                                                                                                 
  (6 PROC) 64 bit serial version                                                         DATE: 18-Sep-24          TIME: 12:11:55  
 **********************************************************************************************************************************

 SHA1:             675817fde4514a4a933b69e420913a90cee4ef91
 **********************************************************************************************************************************

 Memory per process:        32 MW
 Total memory per node:     32 MW

 GA preallocation disabled
 GA check disabled

 Variable memory set to 32.0 MW

 ZCENTRE=MASS


 Geometry recognized as XYZ



 Using masses of most abundant isotopes

 **********************************************************************************************************************************
 SETTING BASIS          =    6-311G(D,P)


 Recomputing integrals since basis changed


 Using spherical harmonics

 Library entry C      S 6-311G               selected for orbital group  1
 Library entry C      P 6-311G               selected for orbital group  1
 Library entry C      D 6-311G*              selected for orbital group  1
 Library entry H      S 6-311G               selected for orbital group  2
 Library entry H      P 6-311G**             selected for orbital group  2


 PROGRAM * SEWARD (Integral evaluation for generally contracted gaussian basis sets)     Author: Roland Lindh, 1990

 Geometry written to block  1 of record 700

 Orientation using atomic masses  
 Molecule type: Asymmetric top
 Symmetry elements: X
 Rotational constants:      29.3519274     33.5516194    234.4945082 GHz

 Point group  Cs  



 ATOMIC COORDINATES

 NR  ATOM    CHARGE       X              Y              Z

   1  C       6.00    0.000000000   -0.044500845   -1.145422559
   2  C       6.00    0.000000000    0.161469087    1.278410687
   3  H       1.00    0.000000000   -1.881230310   -2.080936380
   4  H       1.00    0.000000000    1.594103414   -2.381560424
   5  H       1.00    0.000000000   -1.105593966    2.879029894

 Bond lengths in Bohr (Angstrom)

 1-2  2.432568851  1-3  2.061252347  1-4  2.052574173  2-5  2.041428575
     ( 1.287260000)     ( 1.090767768)     ( 1.086175476)     ( 1.080277479)

 Bond angles

  1-2-5  136.77742802   2-1-3  121.84856727   2-1-4  122.17318969   3-1-4  115.97824305

 NUCLEAR CHARGE:                   15
 NUMBER OF PRIMITIVE AOS:          88
 NUMBER OF SYMMETRY AOS:           86
 NUMBER OF CONTRACTIONS:           54   (   41A'  +   13A"  )
 NUMBER OF INNER CORE ORBITALS:     0   (    0A'  +    0A"  )
 NUMBER OF OUTER CORE ORBITALS:     2   (    2A'  +    0A"  )
 NUMBER OF VALENCE ORBITALS:       11   (    9A'  +    2A"  )


 NUCLEAR REPULSION ENERGY   28.72155657

 Eigenvalues of metric

         1 0.371E-02 0.120E-01 0.155E-01 0.248E-01 0.312E-01 0.380E-01 0.451E-01 0.552E-01
         2 0.122E+00 0.214E+00 0.274E+00 0.398E+00 0.473E+00 0.587E+00 0.866E+00 0.932E+00


 Contracted 2-electron integrals neglected if value below      1.0D-11
 AO integral compression algorithm  1   Integral accuracy      1.0D-11

     3.670 MB (compressed) written to integral file ( 59.0%)


 NUMBER OF SORTED TWO-ELECTRON INTEGRALS:     610330.     BUFFER LENGTH:  32768
 NUMBER OF SEGMENTS:   1  SEGMENT LENGTH:     610330      RECORD LENGTH: 524288

 Memory used in sort:       1.17 MW

 SORT1 READ      744642. AND WROTE      596941. INTEGRALS IN      2 RECORDS. CPU TIME:     0.00 SEC, REAL TIME:     0.01 SEC
 SORT2 READ      596941. AND WROTE      610330. INTEGRALS IN     14 RECORDS. CPU TIME:     0.03 SEC, REAL TIME:     0.03 SEC

 FILE SIZES:   FILE 1:    33.8 MBYTE,  FILE 4:     8.5 MBYTE,   TOTAL:     42.3 MBYTE

 OPERATOR DM      FOR CENTER  0  COORDINATES:    0.000000    0.000000    0.000000


 **********************************************************************************************************************************
 DATASETS  * FILE   NREC   LENGTH (MB)   RECORD NAMES
              1      19       31.40       500      610      700      900      950      970     1000      129      960     1100   
                                          VAR    BASINP    GEOM    SYMINP    ZMAT    AOBASIS   BASIS     P2S    ABASIS      S 
                                         1400     1410     1200     1210     1080     1600     1650     1300     1700   
                                           T        V       H0       H01     AOSYM     SMH    MOLCAS    ERIS     OPER   

 PROGRAMS   *        TOTAL       INT
 CPU TIMES  *         0.32      0.21
 REAL TIME  *         0.38 SEC
 DISK USED  *        40.70 MB
 **********************************************************************************************************************************


 Program * Restricted Hartree-Fock

 Orbital guess generated from atomic densities.

 Initial alpha occupancy:   7   1
 Initial beta  occupancy:   6   1

 NELEC=   15   SYM=1   MS2= 1   THRE=1.0D-08   THRD=1.0D-06   THRG=1.0D-06  HFMA2=F  DIIS_START=2   DIIS_MAX=10   DIIS_INCORE=F

 Level shifts:    0.00 (CLOSED)    0.00 (OPEN)    0.30 (GAP_MIN)

 ITER           ETOT              DE          GRAD        DDIFF     DIIS  NEXP   TIME(IT)  TIME(TOT)  DIAG
   1      -77.37015675     -77.37015675     0.00D+00     0.64D-01     0     0       0.00      0.02    start
   2      -77.39644841      -0.02629166     0.70D-02     0.46D-02     1     0       0.00      0.02    diag2
   3      -77.40104223      -0.00459382     0.25D-02     0.21D-02     2     0       0.01      0.03    diag2
   4      -77.40251845      -0.00147622     0.10D-02     0.15D-02     3     0       0.00      0.03    diag2
   5      -77.40266182      -0.00014337     0.34D-03     0.50D-03     4     0       0.00      0.03    diag2
   6      -77.40267906      -0.00001723     0.13D-03     0.18D-03     5     0       0.01      0.04    diag2
   7      -77.40268140      -0.00000234     0.45D-04     0.71D-04     6     0       0.00      0.04    diag2
   8      -77.40268166      -0.00000027     0.12D-04     0.27D-04     7     0       0.01      0.05    fixocc
   9      -77.40268168      -0.00000001     0.25D-05     0.49D-05     8     0       0.00      0.05    diag2
  10      -77.40268168      -0.00000000     0.75D-06     0.13D-05     9     0       0.00      0.05    diag2/orth
  11      -77.40268168      -0.00000000     0.23D-06     0.53D-06     9     0       0.01      0.06    diag2
  12      -77.40268168      -0.00000000     0.56D-07     0.10D-06     0     0       0.00      0.06    diag

 Final alpha occupancy:   7   1
 Final beta  occupancy:   6   1

 !RHF STATE 1.1 Energy                -77.402681676137
  RHF One-electron energy            -160.096500374124
  RHF Two-electron energy              53.972262123532
  RHF Kinetic energy                   77.405022946385
  RHF Nuclear energy                   28.721556574455
  RHF Virial quotient                  -0.999969752993

 !RHF STATE 1.1 Dipole moment           0.00000000    -0.24025133    -0.06420794
 Dipole moment /Debye                   0.00000000    -0.61065797    -0.16320031

 Orbital energies:

           1.1          2.1          3.1          4.1          5.1          6.1          7.1          8.1          9.1
    -11.242941   -11.230219    -1.034013    -0.763508    -0.625618    -0.579538    -0.416126     0.173429     0.187480

           1.2          2.2          3.2
     -0.392087     0.163575     0.574122


 HOMO      1.2    -0.392087 =     -10.6692eV
 LUMO      2.2     0.163575 =       4.4511eV
 LUMO-HOMO         0.555662 =      15.1203eV

 Orbitals saved in record  2100.2


 **********************************************************************************************************************************
 DATASETS  * FILE   NREC   LENGTH (MB)   RECORD NAMES
              1      19       31.40       500      610      700      900      950      970     1000      129      960     1100   
                                          VAR    BASINP    GEOM    SYMINP    ZMAT    AOBASIS   BASIS     P2S    ABASIS      S 
                                         1400     1410     1200     1210     1080     1600     1650     1300     1700   
                                           T        V       H0       H01     AOSYM     SMH    MOLCAS    ERIS     OPER   

              2       4        0.51       700     1000      520     2100   
                                         GEOM     BASIS   MCVARS     RHF  

 PROGRAMS   *        TOTAL    HF-SCF       INT
 CPU TIMES  *         0.38      0.05      0.21
 REAL TIME  *         0.44 SEC
 DISK USED  *        40.70 MB
 **********************************************************************************************************************************


 PROGRAM * OPT (Geometry optimization)     Authors: F. Eckert and H.-J. Werner


 BFGS update of hessian

 *** Long output written to logfile /home/lme/Theoretische_Chemie/Nomodeco/ase_integration/C2H3.molpro/run/C2H3_1.molpro/C2H3_1.log ***


 Geometry optimization using default procedure for command HF-SCF

 Geometry written to block  1 of record 700

 PQS Optimization using delocalized internal coordinates

 Point group cs. Number of degrees of freedom:    7

 ITER.   ENERGY(OLD)    ENERGY(NEW)      DE          GRADMAX     GRADNORM    GRADRMS     STEPMAX     STEPLEN     STEPRMS   CPU-time
   1   -77.40268168   -77.40314590    -0.00046423  0.01833537  0.02212835  0.00836373  0.03672015  0.04650327  0.01757659      0.47
   2   -77.40314590   -77.40316226    -0.00001636  0.00133513  0.00219399  0.00082925  0.00756127  0.01273261  0.00519806      0.94
   3   -77.40316226   -77.40316362    -0.00000136  0.00036644  0.00059081  0.00022330  0.00335764  0.00475474  0.00179712      1.39
   4   -77.40316362   -77.40316364    -0.00000002  0.00004570  0.00006644  0.00002511  0.00029516  0.00039541  0.00014945      1.83

 END OF GEOMETRY OPTIMIZATION.

 Geometry written to block  1 of record 700

 Recomputing wavefunction for reoriented structure

 Current geometry (xyz format, in Angstrom)

    5
 HF-SCF000/6-311G(D,P)  ENERGY=-77.40316364
 C          0.0000000000       -0.0236999919       -0.6129850103
 C          0.0000000000        0.0867903356        0.6837762490
 H          0.0000000000       -0.9904131637       -1.0946497515
 H          0.0000000000        0.8425267757       -1.2531494951
 H          0.0000000000       -0.6033195496        1.5049000673

 **********************************************************************************************************************************


 **********************************************************************************************************************************
 DATASETS  * FILE   NREC   LENGTH (MB)   RECORD NAMES
              1      19       31.40       500      610      700      900      950      970     1000      129      960     1100   
                                          VAR    BASINP    GEOM    SYMINP    ZMAT    AOBASIS   BASIS     P2S    ABASIS      S 
                                         1400     1410     1200     1210     1080     1600     1650     1300     1700   
                                           T        V       H0       H01     AOSYM     SMH    MOLCAS    ERIS     OPER   

              2       4        0.51       700     1000      520     2100   
                                         GEOM     BASIS   MCVARS     RHF  

 PROGRAMS   *        TOTAL      OPTG    HF-SCF       INT
 CPU TIMES  *         2.39      2.02      0.05      0.21
 REAL TIME  *         2.65 SEC
 DISK USED  *        41.13 MB
 **********************************************************************************************************************************


 PROGRAM * HESSIAN

 Computing numerical hessian using default procedure for command HF-SCF

 Symmetry elements for unique displacements: X  

 Using AUTO symmetry option

 Running default procedure: HF-SCF000


 Numerically approximating hessian using central gradient differences

 Task list generated. Total number of displacements:     25

    5 tasks completed, CPU=2s Elapsed=2s
   10 tasks completed, CPU=5s Elapsed=5s
   15 tasks completed, CPU=7s Elapsed=7s
   20 tasks completed, CPU=10s Elapsed=10s
   25 tasks completed, CPU=12s Elapsed=13s

 Numerical HF-SCF000 hessian completed. CPU-time:    12.98 sec, Elapsed:    13.02 sec

 HF-SCF hessian saved to record  5300.2

 PROGRAM * FREQUENCIES (Calculation of harmonic vibrational spectra for HF-SCF)


 Permanent Dipole Moment [debye]
     1-   3    0.000000   -0.620303   -0.179794

 Dipole Moment Norm    0.6458338 [debye]

 Dipole Moment Derivatives [debye/ang]
              1             2             3             4             5             6             7             8
    1   -1.45018384    0.00000000    0.00000000   -1.16983941    0.00000000    0.00000000    0.67457187    0.00000000
    2    0.00000000    0.65188016    0.00225029    0.00000000   -0.41974983   -0.19978921    0.00000000   -0.29312440
    3    0.00000000    0.05886274   -0.47662777    0.00000000   -0.70344272   -0.08311418    0.00000000   -0.36258140
              9            10            11            12            13            14            15
    1    0.00000000    0.89124056    0.00000000    0.00000000    1.05433604    0.00000000    0.00000000
    2   -0.19241705    0.00000000   -0.14968707    0.26334752    0.00000000    0.21065127    0.12652405
    3    0.17063223    0.00000000    0.37681813    0.09375528    0.00000000    0.63031247    0.29552976

 Projecting out rotations and translations

 Force Constants (Second Derivatives of the Energy) in [a.u.]
                             CX1         CY1         CZ1         CX2         CY2     
           CX1           0.1257359
           CY1           0.0000000   0.6434615
           CZ1           0.0000000   0.0109730   0.9760152
           CX2          -0.0452760   0.0000000   0.0000000   0.0615178
           CY2           0.0000000  -0.0985162  -0.0259253   0.0000000   0.2775796
           CZ2           0.0000000  -0.0675944  -0.6891772   0.0000000  -0.1206580
           HX3          -0.0448472   0.0000000   0.0000000   0.0228582   0.0000000
           HY3           0.0000000  -0.2989269  -0.1140679   0.0000000   0.0013987
           HZ3           0.0000000  -0.1163933  -0.1159328   0.0000000  -0.0340265
           HX4          -0.0408021   0.0000000   0.0000000  -0.0050925   0.0000000
           HY4           0.0000000  -0.2604328   0.1434076   0.0000000   0.0084761
           HZ4           0.0000000   0.1443519  -0.1631835   0.0000000   0.0268550
           HX5           0.0051895   0.0000000   0.0000000  -0.0340075   0.0000000
           HY5           0.0000000   0.0144144  -0.0143875   0.0000000  -0.1889381
           HZ5           0.0000000   0.0286628  -0.0077217   0.0000000   0.1537549
                             CZ2         HX3         HY3         HZ3         HX4     
           CZ2           0.9738193
           HX3           0.0000000   0.0169916
           HY3          -0.0016315   0.0000000   0.3149624
           HZ3          -0.0194809   0.0000000   0.1289144   0.1209608
           HX4           0.0000000   0.0116174   0.0000000   0.0000000   0.0218980
           HY4          -0.0016987   0.0000000  -0.0184729   0.0179438   0.0000000
           HZ4          -0.0200326   0.0000000  -0.0129497   0.0119670   0.0000000
           HX5           0.0000000  -0.0066200   0.0000000   0.0000000   0.0123792
           HY5           0.1915826   0.0000000   0.0010387   0.0035617   0.0000000
           HZ5          -0.2451285   0.0000000  -0.0002654   0.0024859   0.0000000
                             HY4         HZ4         HX5         HY5         HZ5     
           HY4           0.2703004
           HZ4          -0.1576083   0.1754157
           HX5           0.0000000   0.0000000   0.0230587
           HY5           0.0001293  -0.0006489   0.0000000   0.1733557
           HZ5          -0.0020444  -0.0041666   0.0000000  -0.1801079   0.2545309


 Atomic Masses
     1-   5   12.000000   12.000000    1.007825    1.007825    1.007825

 Mass weighted Second Derivative Matrix
                             CX1         CY1         CZ1         CX2         CY2     
           CX1           0.0104780
           CY1           0.0000000   0.0536218
           CZ1           0.0000000   0.0009144   0.0813346
           CX2          -0.0037730   0.0000000   0.0000000   0.0051265
           CY2           0.0000000  -0.0082097  -0.0021604   0.0000000   0.0231316
           CZ2           0.0000000  -0.0056329  -0.0574314   0.0000000  -0.0100548
           HX3          -0.0128959   0.0000000   0.0000000   0.0065729   0.0000000
           HY3           0.0000000  -0.0859571  -0.0328005   0.0000000   0.0004022
           HZ3           0.0000000  -0.0334692  -0.0333367   0.0000000  -0.0097844
           HX4          -0.0117327   0.0000000   0.0000000  -0.0014644   0.0000000
           HY4           0.0000000  -0.0748881   0.0412372   0.0000000   0.0024373
           HZ4           0.0000000   0.0415087  -0.0469238   0.0000000   0.0077222
           HX5           0.0014923   0.0000000   0.0000000  -0.0097789   0.0000000
           HY5           0.0000000   0.0041449  -0.0041371   0.0000000  -0.0543296
           HZ5           0.0000000   0.0082420  -0.0022204   0.0000000   0.0442126
                             CZ2         HX3         HY3         HZ3         HX4     
           CZ2           0.0811516
           HX3           0.0000000   0.0168597
           HY3          -0.0004691   0.0000000   0.3125170
           HZ3          -0.0056018   0.0000000   0.1279135   0.1200217
           HX4           0.0000000   0.0115272   0.0000000   0.0000000   0.0217280
           HY4          -0.0004885   0.0000000  -0.0183295   0.0178045   0.0000000
           HZ4          -0.0057604   0.0000000  -0.0128491   0.0118741   0.0000000
           HX5           0.0000000  -0.0065686   0.0000000   0.0000000   0.0122831
           HY5           0.0550900   0.0000000   0.0010306   0.0035340   0.0000000
           HZ5          -0.0704873   0.0000000  -0.0002633   0.0024666   0.0000000
                             HY4         HZ4         HX5         HY5         HZ5     
           HY4           0.2682017
           HZ4          -0.1563846   0.1740537
           HX5           0.0000000   0.0000000   0.0228797
           HY5           0.0001283  -0.0006439   0.0000000   0.1720097
           HZ5          -0.0020285  -0.0041342   0.0000000  -0.1787095   0.2525547


 Mass Weighted 2nd Derivative Matrix Eigenvalues
     1-  10    0.000000    0.000000    0.000000    0.000000    0.000000    0.000000    0.025774    0.035184    0.041887    0.054315
    11-  15    0.085738    0.119833    0.399747    0.421273    0.431918

 Mass Weighted 2nd Derivative Matrix Eigenvectors
              1             2             3             4             5             6             7             8
    1    0.01070358    0.00290231   -0.01313428   -0.07492444    0.85891374    0.01788344    0.00000000    0.19187790
    2    0.30691712   -0.39507085    0.24422896    0.57186795    0.04583266    0.25441771   -0.16266465    0.00000000
    3    0.08126572   -0.28881952    0.39538184   -0.44245371   -0.03331504    0.03498294   -0.04808680    0.00000000
    4    0.75151071    0.49617754    0.04871083   -0.14022597    0.09335821    0.11551503    0.00000000   -0.37544242
    5    0.11873567   -0.32203092   -0.43337119   -0.12542870   -0.03184737    0.66699633   -0.12021398    0.00000000
    6    0.09729969   -0.29504288    0.45311664   -0.38304067   -0.02669633   -0.00017075   -0.05896980    0.00000000
    7    0.06277399   -0.41886159   -0.30272573   -0.04533804    0.37288669   -0.40081739    0.00000000   -0.39301515
    8    0.10920177   -0.12235473    0.14371721    0.24078796    0.02164414    0.02931956    0.17472177    0.00000000
    9   -0.01710423   -0.06792084   -0.03180796   -0.27886997   -0.02643698    0.09927273   -0.44889500    0.00000000
   10   -0.24155846    0.29493455    0.27806053    0.01812081    0.31709497    0.38461168    0.00000000    0.24770702
   11    0.11586750   -0.12494193    0.16771902    0.26548745    0.02439571    0.01470529    0.23159970    0.00000000
   12    0.05998026   -0.09784008    0.24575637    0.00676260    0.00538297   -0.06973123    0.34529783    0.00000000
   13    0.46820637   -0.06670824   -0.21451211   -0.07779119   -0.07929987   -0.27334636    0.00000000    0.77872087
   14   -0.00012257   -0.07992205   -0.24993578   -0.16430774   -0.02348420    0.26900782    0.56978724    0.00000000
   15   -0.00082496   -0.07423940    0.02681010   -0.21854800   -0.01971701    0.06358124    0.47300962    0.00000000
              9            10            11            12            13            14            15
    1   -0.46821049    0.00000000    0.00000000    0.00000000    0.00000000    0.00000000    0.00000000
    2    0.00000000   -0.40244713    0.00824405    0.06028814   -0.08942867   -0.30612294    0.04874751
    3    0.00000000    0.08808220    0.06595854    0.69728940   -0.21046405    0.08646865    0.05610335
    4    0.06314221    0.00000000    0.00000000    0.00000000    0.00000000    0.00000000    0.00000000
    5    0.00000000    0.42507977   -0.05950880   -0.08126647    0.01940924    0.01205775    0.16414859
    6    0.00000000    0.01465582   -0.37727570   -0.58263507   -0.00621089   -0.03125059   -0.25343029
    7    0.52226049    0.00000000    0.00000000    0.00000000    0.00000000    0.00000000    0.00000000
    8    0.00000000    0.10407751   -0.26195012    0.20933949    0.73458057    0.42997634   -0.12187591
    9    0.00000000   -0.38910838    0.59132171   -0.14427847    0.35676360    0.22598603   -0.06340642
   10    0.68350785    0.00000000    0.00000000    0.00000000    0.00000000    0.00000000    0.00000000
   11    0.00000000    0.18110267    0.36491421   -0.23875217   -0.42268879    0.64485121   -0.02095513
   12    0.00000000    0.41840105    0.53826775   -0.11000740    0.29643628   -0.48714106    0.01384302
   13    0.19197136    0.00000000    0.00000000    0.00000000    0.00000000    0.00000000    0.00000000
   14    0.00000000   -0.36327701    0.07393145    0.10180106   -0.07028080   -0.06011815   -0.59179407
   15    0.00000000   -0.38380330   -0.05534997   -0.14134348    0.09446458    0.07061807    0.73046516

   Low Vibration      Wavenumber
        Nr             [1/cm] 
        1                0.00
        2                0.00
        3                0.00
        4                0.00
        5                0.00
        6                0.00

     Vibration        Wavenumber
        Nr             [1/cm] 
        1              825.28
        2              964.23
        3             1052.07
        4             1198.02
        5             1505.19
        6             1779.48
        7             3250.10
        8             3336.46
        9             3378.35

 FREQUENCIES * CALCULATION OF NORMAL MODES FOR HF-SCF


 Atomic Coordinates

  Nr  Atom  Charge       X              Y              Z

   1   C     6.00    0.000000000   -0.044786494   -1.158373788
   2   C     6.00    0.000000000    0.164009965    1.292149841
   3   H     1.00    0.000000000   -1.871609630   -2.068588233
   4   H     1.00    0.000000000    1.592144859   -2.368109339
   5   H     1.00    0.000000000   -1.140108714    2.843848972

 Gradient norm at reference geometry: 0.17386D-03

 Normal Modes

                              1 A`        2 A``       3 A``       4 A`        5 A` 
 Wavenumbers [cm-1]          825.28      964.23     1052.07     1198.02     1505.19
 Intensities [km/mol]         13.64       28.42       75.20        8.97        7.96
 Intensities [relative]       18.14       37.79      100.00       11.93       10.58
           CX1              0.00000     0.05539    -0.13516     0.00000    -0.00000
           CY1             -0.04696     0.00000     0.00000    -0.11618     0.00238
           CZ1             -0.01388     0.00000     0.00000     0.02543     0.01904
           CX2             -0.00000    -0.10838     0.01823    -0.00000     0.00000
           CY2             -0.03470     0.00000     0.00000     0.12271    -0.01718
           CZ2             -0.01702     0.00000     0.00000     0.00423    -0.10891
           HX3              0.00000    -0.39149     0.52023    -0.00000    -0.00000
           HY3              0.17404     0.00000     0.00000     0.10367    -0.26093
           HZ3             -0.44715     0.00000    -0.00000    -0.38759     0.58902
           HX4             -0.00000     0.24674     0.68085     0.00000     0.00000
           HY4              0.23070    -0.00000    -0.00000     0.18040     0.36349
           HZ4              0.34395    -0.00000     0.00000     0.41677     0.53617
           HX5              0.00000     0.77569     0.19122    -0.00000     0.00000
           HY5              0.56757    -0.00000    -0.00000    -0.36186     0.07364
           HZ5              0.47117    -0.00000    -0.00000    -0.38231    -0.05513

                              6 A`        7 A`        8 A`        9 A` 
 Wavenumbers [cm-1]         1779.48     3250.10     3336.46     3378.35
 Intensities [km/mol]          2.52        5.69        8.78        1.17
 Intensities [relative]        3.35        7.57       11.68        1.55
           CX1             -0.00000     0.00000     0.00000    -0.00000
           CY1              0.01740    -0.02582    -0.08837     0.01407
           CZ1              0.20129    -0.06076     0.02496     0.01620
           CX2              0.00000     0.00000    -0.00000    -0.00000
           CY2             -0.02346     0.00560     0.00348     0.04739
           CZ2             -0.16819    -0.00179    -0.00902    -0.07316
           HX3             -0.00000    -0.00000     0.00000     0.00000
           HY3              0.20853     0.73172     0.42830    -0.12140
           HZ3             -0.14372     0.35538     0.22511    -0.06316
           HX4              0.00000     0.00000    -0.00000    -0.00000
           HY4             -0.23782    -0.42104     0.64234    -0.02087
           HZ4             -0.10958     0.29528    -0.48525     0.01379
           HX5             -0.00000    -0.00000     0.00000    -0.00000
           HY5              0.10141    -0.07001    -0.05988    -0.58949
           HZ5             -0.14079     0.09410     0.07034     0.72762


 Normal Modes of low/zero frequencies

                                  1           2           3           4           5
 Wavenumbers [cm-1]            0.00        0.00        0.00        0.00        0.00
 Intensities [km/mol]          0.00        0.00        0.00        0.00        0.00
 Intensities [relative]        0.00        0.00        0.00        0.00        0.00
           CX1              0.00309     0.00084    -0.00379    -0.02163     0.24795
           CY1              0.08860    -0.11405     0.07050     0.16508     0.01323
           CZ1              0.02346    -0.08338     0.11414    -0.12773    -0.00962
           CX2              0.21694     0.14323     0.01406    -0.04048     0.02695
           CY2              0.03428    -0.09296    -0.12510    -0.03621    -0.00919
           CZ2              0.02809    -0.08517     0.13080    -0.11057    -0.00771
           HX3              0.06253    -0.41723    -0.30155    -0.04516     0.37144
           HY3              0.10878    -0.12188     0.14316     0.23985     0.02156
           HZ3             -0.01704    -0.06766    -0.03168    -0.27779    -0.02633
           HX4             -0.24062     0.29379     0.27698     0.01805     0.31586
           HY4              0.11542    -0.12446     0.16707     0.26445     0.02430
           HZ4              0.05975    -0.09746     0.24480     0.00674     0.00536
           HX5              0.46639    -0.06645    -0.21368    -0.07749    -0.07899
           HY5             -0.00012    -0.07961    -0.24896    -0.16367    -0.02339
           HZ5             -0.00082    -0.07395     0.02671    -0.21770    -0.01964

                                  6
 Wavenumbers [cm-1]            0.00
 Intensities [km/mol]          0.00
 Intensities [relative]        0.00
           CX1              0.00516
           CY1              0.07344
           CZ1              0.01010
           CX2              0.03335
           CY2              0.19255
           CZ2             -0.00005
           HX3             -0.39926
           HY3              0.02921
           HZ3              0.09889
           HX4              0.38312
           HY4              0.01465
           HZ4             -0.06946
           HX5             -0.27228
           HY5              0.26796
           HZ5              0.06333


 Frequencies dumped to record   5400.2
 Frequency information read from record  5400.2

 Zero point energy:  0.03938764 [H]     8644.59 [1/CM]      103.41 [KJ/MOL]

 Recomputing wavefunction at initial geometry


 **********************************************************************************************************************************
 DATASETS  * FILE   NREC   LENGTH (MB)   RECORD NAMES
              1      20       31.64       500      610      700      701      900      950      970     1000      129      960   
                                          VAR    BASINP    GEOM     GEOM    SYMINP    ZMAT    AOBASIS   BASIS     P2S    ABASIS    
                                         1100     1400     1410     1200     1210     1080     1600     1650     1300     1700   
                                           S        T        V       H0       H01     AOSYM     SMH    MOLCAS    ERIS     OPER   

              2       7        0.53       700     1000      520     2100     5300     5450     5400   
                                         GEOM     BASIS   MCVARS     RHF     HESS     NMOD     FREQ   

 PROGRAMS   *        TOTAL      FREQ      OPTG    HF-SCF       INT
 CPU TIMES  *        14.49     12.10      2.02      0.05      0.21
 REAL TIME  *        15.88 SEC
 DISK USED  *        47.43 MB
 **********************************************************************************************************************************

 Dump information in style MOLDEN to c2h3.molden                                                                     

 Molecular orbitals read from record     2100.2  Type=RHF/CANONICAL  
 Occupation numbers read from record     2100.2  Type=RHF/RHF  
 Orbital energies read from record       2100.2  Type=RHF/CANONICAL  
 Redundancy group numbers read from rec  2100.2  Type=RHF/RHF  

 DUMP ORBITAL  1.1 AS ORBITAL    1  occ=    2.0000  eig=  -11.2449  GROUP=   2
 DUMP ORBITAL  2.1 AS ORBITAL    2  occ=    2.0000  eig=  -11.2303  GROUP=   2
 DUMP ORBITAL  3.1 AS ORBITAL    3  occ=    2.0000  eig=   -1.0311  GROUP=   2
 DUMP ORBITAL  4.1 AS ORBITAL    4  occ=    2.0000  eig=   -0.7672  GROUP=   2
 DUMP ORBITAL  5.1 AS ORBITAL    5  occ=    2.0000  eig=   -0.6256  GROUP=   2
 DUMP ORBITAL  6.1 AS ORBITAL    6  occ=    2.0000  eig=   -0.5814  GROUP=   2
 DUMP ORBITAL  1.2 AS ORBITAL    7  occ=    2.0000  eig=   -0.3884  GROUP=   2
 DUMP ORBITAL  7.1 AS ORBITAL    8  occ=    1.0000  eig=   -0.4216  GROUP=   1

 Total charge:      15.000000
 Frequency information read from record  5400.2

 **********************************************************************************************************************************

 HF/6-311G(D,P) energy=    -77.403163635357

    OPTG(HF-SCF)          HF-SCF
    -77.40316364    -77.40268168
 **********************************************************************************************************************************
 Molpro calculation terminated
