[Molden Format]
[Molpro variables]
_NUMVAR=  1070.000000000000    
_AVOGAD= 0.6022140760000000E+24
_BOLTZ= 0.1380649000000000E-22
_CLIGHTSI=  299792458.0000000    
_JOULE= 0.4359744722207100E-17
_JPCAL=  4.184000000000000    
_PLANCK= 0.6626070150000000E-33
_BOHR= 0.5291772109030000E-10
_ECHARG= 0.1602176634000000E-18
_ENULL= 0.8854187812800001E-11
_MU= 0.1660539066600000E-26
_EMASS= 0.9109383701500001E-30
_AMU2AU=  1822.888486217313    
_CLIGHT=  29979245800.00000    
_EV= 0.3674932217565494E-01
_KJOULE= 0.3808798847133432E-03
_KJOULE/MOL= 0.3808798847133432E-03
_CM= 0.4556335252912009E-05
_CM-1= 0.4556335252912009E-05
_DEB2SI= 0.3335640951981520E-29
_KCAL= 0.1593601437640628E-02
_KCAL/MOL= 0.1593601437640628E-02
_KELVIN= 0.3166811563455608E-05
_HERTZ= 0.1519829846057038E-15
_HZ= 0.1519829846057038E-15
_TOA= 0.5291772109030000    
_TOANG= 0.5291772109030000    
_TORAD= 0.1745329251994330E-01
_TOCM=  219474.6313631965    
_TODEBYE=  2.541746473194078    
_TOE= 0.4803204712570263E-09
_TOEV=  27.21138624598803    
_TOHERTZ=  6579683920501656.    
_TOHZ=  6579683920501656.    
_TOK=  315775.0248040668    
_TOKCAL=  627.5094740630558    
_TOKELVIN=  315775.0248040668    
_TOKJ=  2625.499639479825    
_TOKJOULE=  2625.499639479825    
_TOKG= 0.1660539066600000E-26
_ANG=  1.889726124625770    
_ANGSTROM=  1.889726124625770    
_RPAREF=  0.000000000000000    
_RPADISS=  0.000000000000000    
_IGNORE_UNDEF=  2.000000000000000    
_STRICTCHECK=  0.000000000000000    
!SEWARD=  0.000000000000000    
!MULTI=  0.000000000000000    
!DFMULTI=  0.000000000000000    
!NUMHESS=  0.000000000000000    
_SEW_ONEEL=  0.000000000000000    
_CPPDONE=FALSE
_DKROLL_DONE=  0.000000000000000    
_FNUC_DONE=  0.000000000000000    
_FOCKDONE=TRUE
_GRADONE=FALSE
_HESSDONE=TRUE
_INTDONE=TRUE
_SCFDONE=TRUE
_MODUL_BLOCK=FALSE
_MODUL_SLATER=TRUE
_MODUL_MRCC=FALSE
_MODUL_NBO6=FALSE
_MODUL_NECI=FALSE
_MODUL_AIMS=TRUE
_MODUL_HDF5=FALSE
_MODUL_GECCO=FALSE
_ISWINDOWS=FALSE
_MRCC_EXEC=
_FITC_AO_SAVED=FALSE
_FITC_MO_SAVED=FALSE
_LSTYP=SEWARD
_INTYP=INTS
_GEOMTYP=XYZ
_GRADTYP=ALASKA
_DIRECT=FALSE
_DKHO= -1.000000000000000    
_FNUC=  0.000000000000000    
_SYNCM=  0.000000000000000    
_BASIS=6-311G(D,P)
_ZCENTRE=MASS
_ZORIENT=  1.000000000000000    
_NELEC=  15.00000000000000    
!SPIN=  1.000000000000000    
_OPTCONV= 0.3954070243389124E-03
_QSDSTEP=  0.000000000000000    
_QSDIRC=  0.000000000000000    
_PROGRAM=FREQ
_CPUSTEP=  0.000000000000000    
_SYSSTEP=  0.000000000000000    
_WALLSTEP=  0.000000000000000    
!DFSCF=  0.000000000000000    
!SCSGRD=  0.000000000000000    
_NCEN=  5.000000000000000    
_CPUTOT=  14.49000000000000    
_CPUSORT= 0.5000000000000071E-01
_SYSSORT= 0.2000000000000002E-01
_WALLSORT= 0.6000000238418579E-01
_DFTEXFAC=  1.000000000000000    
_DMX=  0.000000000000000    
_DMY=-0.2440458425598794    
_DMZ=-0.7073628690262290E-01
_DMX_SCF=  0.000000000000000    
_DMY_SCF=-0.2440458425598794    
_DMZ_SCF=-0.7073628690262290E-01
_FREQUENCIES= 0.3808696112390872E-04
_HOMO=  1.200000000000000    
_EHOMO=-0.3884382111843632    
_LUMO=  2.200000000000000    
_ELUMO= 0.1599900100201905    
_ENERGY= -77.40316363535727    
_ENERGY_METHOD=HF
_ENERGY_BASIS=6-311G(D,P)
_GEOMETRY_METHOD=
_GEOMETRY_BASIS=
_ENUC=  28.64434453921761    
_FREQSTEP=  26.00000000000000    
_GRADENERG= -77.40315088139208    
_GRADEXFAC=  9999.000000000000    
_GRADMETHOD=  2.000000000000000    
_NMRMETHOD=  0.000000000000000    
_NMRMAGNET=  0.000000000000000    
_VIRIAL=-0.6514252462585545E-02
!GRID_FREEZE= -1.000000000000000    
!NEESE_INDEX=  0.000000000000000    
_ITERATIONS=  2.000000000000000    
_LASTNELEC=  15.00000000000000    
_LASTSPIN=  1.000000000000000    
_LASTSYM=  1.000000000000000    
_MPP_PROG=  0.000000000000000    
_MSNSTATES=  0.000000000000000    
_RS2PHASE=  0.000000000000000    
_NPROC_MPP=  1.000000000000000    
_NPROC_SMP=  6.000000000000000    
_NUMSTEP=  0.000000000000000    
_OPTCONVMX= 0.2951568646060668E-03
_OPTCONVRMS= 0.1494498075784037E-03
_OPTGRAD= 0.6644165865563128E-04
_OPTGRADMX= 0.4570158545860424E-04
_OPTGRADRMS= 0.2511258649963463E-04
!GMAXLAST= 0.4570158545860424E-04
!DMAXLAST= 0.2951568646060668E-03
!DELAST= 0.1355206549646937E-05
_OPTSTEP=  4.000000000000000    
_ORBITAL=  2100.200000000000    
_PI=  3.141592653589793    
_SEIG_MIN= 0.3950414947886604E-02
_SEWPROP=TRUE
_STATUS=  1.000000000000000    
_SYSTOT=  1.350000000000000    
_VERSION=  2024001.000000000    
_WALLTOT=  15.88000000000000    
_ZPE= 0.3938764390263295E-01
_DATE=18-Sep-24
_LASTORB=0
_OUTPUT=/home/lme/Theoretische_Chemie/Nomodeco/ase_integration/C2H3.molpro/run/C2H3_1.molpro/C2H3_1.out
_PGROUP=Cs
_TIME=12:11:55
_LIBMOL=/usr/local/molpro/molpro_2024.1.0_sockets/lib/
_VIGRDC=  0.000000000000000    
!VIBCNT=  0.000000000000000    
!SURFREC=  0.000000000000000    
!XSURFREC=  0.000000000000000    
!XPOLYREC=  0.000000000000000    
!ROTREC=  0.000000000000000    
!POLYREC=  0.000000000000000    
!DIPREC=  0.000000000000000    
!DIP4DREC=  0.000000000000000    
!DIPROT=  0.000000000000000    
!DIP4DROT=  0.000000000000000    
!PTREC=  0.000000000000000    
!PT4DREC=  0.000000000000000    
!VSCFREC=  0.000000000000000    
!VCIREC=  0.000000000000000    
!PVCIREC=  0.000000000000000    
!VMP2REC=  0.000000000000000    
!VMCSCFREC=  0.000000000000000    
!VMRCIREC=  0.000000000000000    
!VIBSTATEREC=  0.000000000000000    
!VIBSTATECNT=  0.000000000000000    
!VIBINFO=  0.000000000000000    
!GAREC=  0.000000000000000    
!SCFORB=  21002.00000000000    
!DEFCORE=  2.000000000000000    
!SCORE=  0.000000000000000    
!NEWMOL=  0.000000000000000    
!NEWSYM=  0.000000000000000    
_SLFILES=slscratch
_NGSSTO=  9.000000000000000    
_SIN=SIN
_COS=COS
_TAN=TAN
_ACOS=ACOS
_ASIN=ASIN
_ATAN=ATAN
_COSH=COSH
_SINH=SINH
_TANH=TANH
_ABS=ABS
_MOD=MOD
_ERF=ERF
_REFC=REFC
_ERFC=ERFC
_HYPOT=HYPOT
_J0=J0
_J1=J1
_JN=JN
_GAMMA=GAMMA
_LGAMMA=LGAMMA
_Y0=Y0
_Y1=Y1
_YN=YN
_EXP=EXP
_LOG=LOG
_LOG10=LOG10
_SQRT=SQRT
_INT=INT
_NINT=NINT
_MAX=MAX
_MIN=MIN
_COSMO=  0.000000000000000    
_COSMOIT=  0.000000000000000    
_COSMOES=  0.000000000000000    
_COSMOEDS=  0.000000000000000    
_COSMOEC=  0.000000000000000    
_COSMOEDCORR=  0.000000000000000    
_FEPSI=  1.000000000000000    
_SL_IsMM=  0.000000000000000    
_SL_NSYM=  2.000000000000000    
_SL_System_BitSw=  0.000000000000000    
_SL_Unique_atoms=  0.000000000000000    
_SL_GRAD=  0.000000000000000    
_SL_MAXUPD_Hess=  5.000000000000000    
_SL_N_PRINT_COD=  5.000000000000000    
_SL_PRINT_CODES=  0.000000000000000    
_SL_BasType=  0.000000000000000    
_SL_Energy_Pred=  0.000000000000000    
_SL_New_Coords=  0.000000000000000    
_SL_Total_Nuclea=  0.000000000000000    
_SL_Highest_Mltp=  0.000000000000000    
_SL_Ref_Geom=  0.000000000000000    
_SL_Symmetry_ope=  11.00000000000000    
_SL_agrad=  0.000000000000000    
_SL_GrdMax=  0.000000000000000    
_SL_GrdNorm=  0.000000000000000    
_SL_GrdRMS=  0.000000000000000    
_SL_Hss_Q=  0.000000000000000    
_SL_Hss_X=  0.000000000000000    
_SL_BMxOld=  0.000000000000000    
_SL_KtB=  0.000000000000000    
_SL_TROld=  0.000000000000000    
_SL_No_of_Intern=  0.000000000000000    
_SL_Hess=  0.000000000000000    
_SL_K=  0.000000000000000    
!LATTICE= -1.000000000000000    
!NEWLATTICE=  0.000000000000000    
!LATGRAD_VAR=FALSE
!SEW_LATTICE=  1.000000000000000    
!AIC_ONEEL=  0.000000000000000    
!LOCAL=  0.000000000000000    
!SAVEDOM= -1.000000000000000    
!RESTDOM= -1.000000000000000    
!SAVEDOM_HF= -1.000000000000000    
!RESTDOM_HF= -1.000000000000000    
!HESSREC=  5300.200000000000    
!FREQREC=  5400.200000000000    
!NMODREC=  5450.200000000000    
!GTASKS=  0.000000000000000    
!HTASKS=  0.000000000000000    
!SAVEDOM_EOM= -1.000000000000000    
!RESTDOM_EOM= -1.000000000000000    
!GRADSTATE= -1.000000000000000    
!DEBUG=  0.000000000000000    
!CFIT_CPHF=  0.000000000000000    
!RDOMAUX_CPHF=  0.000000000000000    
!THRAO_CPHF= 0.1000000000000000E-11
!THRMO_CPHF= 0.1000000000000000E-11
!THROV_CPHF= 0.1000000000000000E-13
!THRSW_CPHF= 0.1000000000000000E-11
!THRPROD_CPHF= 0.1000000000000000E-11
!THRAOPR_CPHF= 0.1000000000000000E-11
!CFIT_SCFGRD=  0.000000000000000    
!RDOMAUX_SCFGRD=  0.000000000000000    
!THRAO_SCFGRD= 0.1000000000000000E-11
!THRMO_SCFGRD= 0.1000000000000000E-11
!THROV_SCFGRD= 0.1000000000000000E-13
!THRSW_SCFGRD= 0.1000000000000000E-11
!THRPROD_SCFGRD= 0.1000000000000000E-11
!THRAOPR_SCFGRD= 0.1000000000000000E-11
!LOCFIT_SCF=  0.000000000000000    
!LOCFIT_MP2=  0.000000000000000    
_RIDOM=  0.000000000000000    
!CC2_METHOD=  0.000000000000000    
_BASIS2006=FALSE
_SVDDEL= -1.000000000000000    
_SVDDELA= -1.000000000000000    
_SVDDELP= -1.000000000000000    
_SVDDELF= -1.000000000000000    
_SVDDELS= -1.000000000000000    
_SVDDEL_ABS= -1.000000000000000    
_SVDDELA_ABS= -1.000000000000000    
_SVDDELP_ABS= -1.000000000000000    
_SVDDELF_ABS= -1.000000000000000    
_SVDDELS_ABS= -1.000000000000000    
_MAXBASIS=  0.000000000000000    
!OPT_CONICAL=  0.000000000000000    
!CLEARSP_JGRID=  0.000000000000000    
_GRDHYBR=  0.000000000000000    
_STATEGRAD=  1.000000000000000    
_4EXT_NDISKS=  1.000000000000000    
!EMBEDFLAG=  1.000000000000000    
!EMBED=FALSE
!EMBED_F12=FALSE
!EMBEDNUC=  0.000000000000000    
_EMBEDENERGY=  0.000000000000000    
!EMBED_DFC=FALSE
!NUM_VOIDS=  0.000000000000000    
_IBODY=  0.000000000000000    
_EMBE_CORR=  0.000000000000000    
!EMBED_PROJ=FALSE
!EMB_PROJ_ZMU=  1000000.000000000    
!CORRECTION_HF=  0.000000000000000    
!EMBED_AORB=  0.000000000000000    
!EMBED_NACORR=  0.000000000000000    
!EMBED_MP2=FALSE
!EMBED_TRUNC_PERTURBATION=FALSE
!EMBED_FROZEN=  0.000000000000000    
!EMBED_ACTIVE=  0.000000000000000    
_CHANGE_BASIS=FALSE
_RESTORE_BASIS=FALSE
_FIX_EMBED_GUESS=FALSE
_EMBED_SCF=FALSE
_NEOBAS=FALSE
_NEOOVE=FALSE
_PRINEO=FALSE
_HUZINAGA_T=FALSE
_HUZINAGA_F=FALSE
_HUZINAGA=FALSE
_HUZINAGA_CORRECT=FALSE
!FASTLATGRAD=  1.000000000000000    
!FASTVLAMBDA= -1.000000000000000    
!IFORCE= -1.000000000000000    
!USESYM= -1.000000000000000    
_SINDEX=  0.000000000000000    
_AVDOM_OSV=  0.000000000000000    
_AVDOM_PNO=  0.000000000000000    
_AVDOM_PNOCC=  0.000000000000000    
_AVDOM_TNO=  0.000000000000000    
_AVDOM_TNOIT=  0.000000000000000    
_AVDOM_PAO=  0.000000000000000    
_AVDOM_LMO=  0.000000000000000    
_CC2OSV_FLAG=  0.000000000000000    
_EOMCCSD_CONV=FALSE
_TMADC2_FLAG=FALSE
_PROPADC2_FLAG=FALSE
_LEN_VirQ=  0.000000000000000    
_GRDCC2LR_FLAG=FALSE
_GRDADC2_FLAG=FALSE
_RO_VGLOBAL=  0.000000000000000    
_OPT=FALSE
_FREQ=FALSE
_HESS=FALSE
_CMRCC_callName=EMPTY
_CMRCC_callCount=  0.000000000000000    
_GECCO_CIROOT=  1.000000000000000    
_SYM_CATION=  2.000000000000000    
_MON_A=FALSE
_MON_B=FALSE
_MAXGEOM=  100.0000000000000    
!MAXGEOM=  100.0000000000000    
_NCORE=  0.000000000000000    
_NLARGECORE=  0.000000000000000    
GX1=  0.000000000000000    
GY1=-0.2369999193320349E-01
GZ1=-0.6129850102516340    
GX2=  0.000000000000000    
GY2= 0.8679033560342689E-01
GZ2= 0.6837762490361921    
GX3=  0.000000000000000    
GY3=-0.9904131637169800    
GZ3= -1.094649751487062    
GX4=  0.000000000000000    
GY4= 0.8425267757221514    
GZ4= -1.253149495148294    
GX5=  0.000000000000000    
GY5=-0.6033195495862801    
GZ5=  1.504900067298968    
CX1=  0.000000000000000    
CY1=-0.4478649390959465E-01
CZ1= -1.158373787876508    
CX2=  0.000000000000000    
CY2= 0.1640099645548339    
CZ2=  1.292149841202309    
HX3=  0.000000000000000    
HY3= -1.871609629649237    
HZ3= -2.068588232700208    
HX4=  0.000000000000000    
HY4=  1.592144858778867    
HZ4= -2.368109339043326    
HX5=  0.000000000000000    
HY5= -1.140108714350646    
HZ5=  2.843848972125940    
[Atoms] Angs
C     1    6         0.0000000000       -0.0236999919       -0.6129850103
C     2    6         0.0000000000        0.0867903356        0.6837762490
H     3    1         0.0000000000       -0.9904131637       -1.0946497515
H     4    1         0.0000000000        0.8425267757       -1.2531494951
H     5    1         0.0000000000       -0.6033195496        1.5049000673
[GTO]
   1 0
 s    6  1.00
  0.4563240000D+04  0.1966650249D-02
  0.6820240000D+03  0.1523060193D-01
  0.1549730000D+03  0.7612690966D-01
  0.4445530000D+02  0.2608010331D+00
  0.1302900000D+02  0.6164620782D+00
  0.1827730000D+01  0.2210060280D+00
 s    3  1.00
  0.2096420000D+02  0.1146600807D+00
  0.4803310000D+01  0.9199996477D+00
  0.1459330000D+01 -0.3030682134D-02
 s    1  1.00
  0.4834560000D+00  0.1000000000D+01
 s    1  1.00
  0.1455850000D+00  0.1000000000D+01
 p    3  1.00
  0.2096420000D+02  0.4024869267D-01
  0.4803310000D+01  0.2375939567D+00
  0.1459330000D+01  0.8158538515D+00
 p    1  1.00
  0.4834560000D+00  0.1000000000D+01
 p    1  1.00
  0.1455850000D+00  0.1000000000D+01
 d    1  1.00
  0.6260000000D+00  0.1000000000D+01
  
   2 0
 s    6  1.00
  0.4563240000D+04  0.1966650249D-02
  0.6820240000D+03  0.1523060193D-01
  0.1549730000D+03  0.7612690966D-01
  0.4445530000D+02  0.2608010331D+00
  0.1302900000D+02  0.6164620782D+00
  0.1827730000D+01  0.2210060280D+00
 s    3  1.00
  0.2096420000D+02  0.1146600807D+00
  0.4803310000D+01  0.9199996477D+00
  0.1459330000D+01 -0.3030682134D-02
 s    1  1.00
  0.4834560000D+00  0.1000000000D+01
 s    1  1.00
  0.1455850000D+00  0.1000000000D+01
 p    3  1.00
  0.2096420000D+02  0.4024869267D-01
  0.4803310000D+01  0.2375939567D+00
  0.1459330000D+01  0.8158538515D+00
 p    1  1.00
  0.4834560000D+00  0.1000000000D+01
 p    1  1.00
  0.1455850000D+00  0.1000000000D+01
 d    1  1.00
  0.6260000000D+00  0.1000000000D+01
  
   3 0
 s    3  1.00
  0.3386500000D+02  0.2549381454D-01
  0.5094790000D+01  0.1903731086D+00
  0.1158790000D+01  0.8521614860D+00
 s    1  1.00
  0.3258400000D+00  0.1000000000D+01
 s    1  1.00
  0.1027410000D+00  0.1000000000D+01
 p    1  1.00
  0.7500000000D+00  0.1000000000D+01
  
   4 0
 s    3  1.00
  0.3386500000D+02  0.2549381454D-01
  0.5094790000D+01  0.1903731086D+00
  0.1158790000D+01  0.8521614860D+00
 s    1  1.00
  0.3258400000D+00  0.1000000000D+01
 s    1  1.00
  0.1027410000D+00  0.1000000000D+01
 p    1  1.00
  0.7500000000D+00  0.1000000000D+01
  
   5 0
 s    3  1.00
  0.3386500000D+02  0.2549381454D-01
  0.5094790000D+01  0.1903731086D+00
  0.1158790000D+01  0.8521614860D+00
 s    1  1.00
  0.3258400000D+00  0.1000000000D+01
 s    1  1.00
  0.1027410000D+00  0.1000000000D+01
 p    1  1.00
  0.7500000000D+00  0.1000000000D+01


[MO]
 Sym=      1.1
 Ene=     -11.2449
 Spin= Alpha
 Occup=    2.000000
1 0.038789082285552
2 0.032095391752297
3 0.000354711736425
4 -0.000327577800479
5 0.0
6 0.000042404940065
7 0.000304277542104
8 0.0
9 -0.000072169334114
10 -0.000391080596390
11 0.0
12 0.000015454519407
13 0.000003400428635
14 0.000102498615338
15 -0.000010136459968
16 -0.000092362155370
17 0.0
18 0.0
19 -0.000120057286579
20 0.56202167193441
21 0.46555254447359
22 0.003898733420949
23 0.000079254040593
24 0.0
25 -0.000240731077289
26 0.000233621110612
27 0.0
28 -0.000376653923565
29 -0.000932804504001
30 0.0
31 -0.000136342883145
32 -0.000045104167301
33 -0.000467859930182
34 -0.000365576650702
35 0.000833436580884
36 0.0
37 0.0
38 -0.000143913868445
39 0.000013891714328
40 -0.000134786985865
41 0.000043108610358
42 0.0
43 -0.000038083390246
44 0.000006836270491
45 0.000033019226161
46 -0.000053215641523
47 0.000127748361380
48 0.0
49 0.000076553508662
50 0.000014030721210
51 0.000374426665885
52 -0.000078277680849
53 0.000153315652248
54 0.0
55 -0.000117045607390
56 -0.000053363834175
 Sym=      2.1
 Ene=     -11.2303
 Spin= Alpha
 Occup=    2.000000
1 0.56194758266265
2 0.46544290644921
3 0.004461084974460
4 -0.000154594004518
5 0.0
6 -0.000002396416219
7 -0.000245054083715
8 0.0
9 0.000048717940912
10 0.000811313827590
11 0.0
12 0.000014390294975
13 0.000005676710649
14 -0.000503625177318
15 -0.000131772074895
16 0.000635397252214
17 0.0
18 0.0
19 0.000052683489499
20 -0.039096990854178
21 -0.032423833840611
22 -0.000161236852995
23 -0.000177394221220
24 0.0
25 0.000013554537629
26 -0.000333168043994
27 0.0
28 0.000016701798956
29 0.000493447096387
30 0.0
31 0.000040492780866
32 -0.000001387442465
33 0.000167524801895
34 0.000005378313215
35 -0.000172903115111
36 0.0
37 0.0
38 -0.000052230187922
39 0.000426427392513
40 -0.000029622176148
41 0.000179053116119
42 0.0
43 0.000017181701369
44 0.000040299617714
45 0.000423244403985
46 -0.000067848878717
47 0.000165520588612
48 0.0
49 -0.000001916096323
50 0.000043937407293
51 -0.000047609518652
52 -0.000166568272885
53 0.000094239184724
54 0.0
55 -0.000069074471846
56 0.000049328385798
 Sym=      3.1
 Ene=      -1.0311
 Spin= Alpha
 Occup=    2.000000
1 -0.091316194324643
2 -0.15024499456241
3 0.37630231264218
4 0.19556073793629
5 0.0
6 0.002501290176513
7 0.053697071496701
8 0.0
9 0.003242328208724
10 0.080893808209261
11 0.0
12 0.001596889815058
13 0.009384528093366
14 -0.012764629015352
15 -0.006249407327090
16 0.019014036342442
17 0.0
18 0.0
19 0.000075474574121
20 -0.077782272421794
21 -0.12837106667502
22 0.32799946776532
23 0.16855988898449
24 0.0
25 -0.021969865071660
26 -0.067714153878821
27 0.0
28 -0.029752512587715
29 -0.097493743125856
30 0.0
31 -0.019414742317877
32 -0.025308373943973
33 -0.010655242716480
34 -0.011386603472652
35 0.022041846189133
36 0.0
37 0.0
38 0.000002363753064
39 0.056876267933879
40 0.073091358432340
41 -0.007656508056320
42 0.0
43 0.012902092795666
44 0.008744836015274
45 0.056373212474325
46 0.073821211219880
47 -0.005261679566119
48 0.0
49 -0.010444566047910
50 0.010472026041226
51 0.044775702316884
52 0.059090743312085
53 -0.004634014780647
54 0.0
55 0.004378151734138
56 -0.010409871694677
 Sym=      4.1
 Ene=      -0.7672
 Spin= Alpha
 Occup=    2.000000
1 0.051605419356759
2 0.086135530921098
3 -0.21982274012896
4 -0.18961762035275
5 0.0
6 -0.010750521307684
7 0.089792311541736
8 0.0
9 -0.016181452398349
10 0.14220168648359
11 0.0
12 -0.000434115551096
13 0.055067185759504
14 0.008395219471129
15 -0.018167944687258
16 0.009772725216129
17 0.0
18 0.0
19 -0.002961337206700
20 -0.067777258716291
21 -0.11321485993711
22 0.29417250202706
23 0.22664286593186
24 0.0
25 -0.054492301740853
26 0.058540907797147
27 0.0
28 -0.078659274245361
29 0.095985592640508
30 0.0
31 -0.047970404425088
32 0.032608827637903
33 -0.008861750627331
34 0.004205566666635
35 0.004656183960695
36 0.0
37 0.0
38 -0.013427523483163
39 -0.075489162427741
40 -0.10785553549670
41 -0.020338253959672
42 0.0
43 -0.012589976747862
44 -0.001659502441535
45 -0.094817124313261
46 -0.13560906572824
47 -0.019764478370709
48 0.0
49 0.016470846537937
50 -0.006686071861205
51 0.12884124569953
52 0.18737403037699
53 0.029142444980280
54 0.0
55 0.013846389302225
56 -0.017078539781995
 Sym=      5.1
 Ene=      -0.6256
 Spin= Alpha
 Occup=    2.000000
1 0.002414432032430
2 0.003983143743288
3 -0.007669359146103
4 -0.038952159464415
5 0.0
6 0.11853725193484
7 0.13561990807729
8 0.0
9 0.18112399458087
10 0.20498561537401
11 0.0
12 0.10414761580696
13 0.099373212731005
14 0.001748803248045
15 -0.020710834806180
16 0.018962031558135
17 0.0
18 0.0
19 -0.002947386132601
20 -0.012461971818654
21 -0.021067475908341
22 0.059520389581068
23 -0.000310226970604
24 0.0
25 0.057613780369976
26 -0.14272518811249
27 0.0
28 0.087875272404369
29 -0.20022034277049
30 0.0
31 0.031021410255896
32 -0.090369999153696
33 0.000127108125258
34 -0.011259812037244
35 0.011132703911986
36 0.0
37 0.0
38 0.001717171736073
39 -0.14044100373900
40 -0.21703247209075
41 -0.067476419060277
42 0.0
43 -0.019279729805370
44 -0.004383653516999
45 0.009048072769544
46 0.013587456076523
47 0.000575158744928
48 0.0
49 0.003868089150860
50 0.009054475672381
51 -0.098288120895364
52 -0.15755279621447
53 -0.044055796518131
54 0.0
55 -0.013570452072441
56 0.011054371537374
 Sym=      6.1
 Ene=      -0.5814
 Spin= Alpha
 Occup=    2.000000
1 0.004216058574861
2 0.007070081708213
3 -0.019281556933595
4 0.005427386218641
5 0.0
6 0.15164992593148
7 -0.10531428829174
8 0.0
9 0.23226127646847
10 -0.15553253475610
11 0.0
12 0.15628663948620
13 -0.088673961470289
14 -0.000130427148449
15 0.006450084518418
16 -0.006319657369969
17 0.0
18 0.0
19 -0.028010003042486
20 -0.004916370038306
21 -0.008441274493951
22 0.021243975177346
23 0.053447492960710
24 0.0
25 -0.001393938621856
26 0.10836920649288
27 0.0
28 0.002856920204332
29 0.16149848950103
30 0.0
31 -0.031729684051413
32 0.077472132145882
33 -0.002318514470286
34 0.004397851285523
35 -0.002079336815237
36 0.0
37 0.0
38 -0.030364031139954
39 -0.084142249357152
40 -0.13139534575099
41 -0.048205516323853
42 0.0
43 -0.004901471235111
44 -0.012803155701592
45 0.15563370359219
46 0.24254828785173
47 0.083112304814866
48 0.0
49 -0.015286906187773
50 0.011365108333708
51 0.082743286554107
52 0.12937957637072
53 0.046489318764451
54 0.0
55 0.007748027671461
56 -0.004119602170339
 Sym=      1.2
 Ene=      -0.3884
 Spin= Alpha
 Occup=    2.000000
1 0.0
2 0.0
3 0.0
4 0.0
5 0.17017027314937
6 0.0
7 0.0
8 0.27779902035255
9 0.0
10 0.0
11 0.27998488131314
12 0.0
13 0.0
14 0.0
15 0.0
16 0.0
17 0.002260874767513
18 0.032274097577262
19 0.0
20 0.0
21 0.0
22 0.0
23 0.0
24 0.16678814063183
25 0.0
26 0.0
27 0.27171142197348
28 0.0
29 0.0
30 0.25854713178683
31 0.0
32 0.0
33 0.0
34 0.0
35 0.0
36 -0.007541247576179
37 -0.033567666001814
38 0.0
39 0.0
40 0.0
41 0.0
42 0.013046314891920
43 0.0
44 0.0
45 0.0
46 0.0
47 0.0
48 0.012837389673075
49 0.0
50 0.0
51 0.0
52 0.0
53 0.0
54 0.013522468116242
55 0.0
56 0.0
 Sym=      7.1
 Ene=      -0.4216
 Spin= Alpha
 Occup=    1.000000
1 0.012928230036437
2 0.022163189920393
3 -0.063359227971982
4 -0.031334910740464
5 0.0
6 -0.022794209059447
7 -0.037878454273137
8 0.0
9 -0.039718707682615
10 -0.053630984355221
11 0.0
12 -0.10970305444908
13 -0.022419384968254
14 0.000670065850399
15 0.006859313146764
16 -0.007529378997163
17 0.0
18 0.0
19 0.040737952229451
20 -0.040184904160801
21 -0.069656492398841
22 0.20438718959408
23 0.31967016291618
24 0.0
25 0.23451637251840
26 0.082072808128948
27 0.0
28 0.38733128355920
29 0.13704894039296
30 0.0
31 0.40443388334863
32 0.12380931479817
33 -0.000511850371008
34 0.015274602923213
35 -0.014762752552205
36 0.0
37 0.0
38 0.018877875871131
39 0.050059802741168
40 0.082505611289114
41 0.080739314725883
42 0.0
43 -0.001178750407685
44 -0.002668880623605
45 -0.038014888896467
46 -0.063386120895993
47 -0.039679805240990
48 0.0
49 -0.003049611695525
50 -0.001534677124201
51 -0.051857462711249
52 -0.10414802167680
53 -0.059621598822564
54 0.0
55 0.011696271444085
56 0.010916655532166
 Sym=      2.2
 Ene=       0.1600
 Spin= Alpha
 Occup=    0.000000
1 0.0
2 0.0
3 0.0
4 0.0
5 -0.15967679156580
6 0.0
7 0.0
8 -0.20057516715211
9 0.0
10 0.0
11 -0.80038158495042
12 0.0
13 0.0
14 0.0
15 0.0
16 0.0
17 0.002949185693938
18 0.029218442068794
19 0.0
20 0.0
21 0.0
22 0.0
23 0.0
24 0.16892004771159
25 0.0
26 0.0
27 0.22232700925221
28 0.0
29 0.0
30 0.79929745288127
31 0.0
32 0.0
33 0.0
34 0.0
35 0.0
36 0.004401342181269
37 0.030023286272711
38 0.0
39 0.0
40 0.0
41 0.0
42 -0.019010333171443
43 0.0
44 0.0
45 0.0
46 0.0
47 0.0
48 -0.018813841638095
49 0.0
50 0.0
51 0.0
52 0.0
53 0.0
54 0.022641576371469
55 0.0
56 0.0
 Sym=      8.1
 Ene=       0.1734
 Spin= Alpha
 Occup=    0.000000
1 0.029501306495932
2 0.046627591081821
3 -0.044244651861172
4 -1.43158277325621
5 0.0
6 0.032521992398388
7 0.061905273772086
8 0.0
9 0.015943548604201
10 0.042963821675470
11 0.0
12 0.098817035606068
13 0.43945602820667
14 0.003840086972700
15 0.007596183726130
16 -0.011436270698830
17 0.0
18 0.0
19 0.014237440741162
20 0.020572371011602
21 0.031851682400605
22 -0.035494708761850
23 -0.91397621859273
24 0.0
25 0.032428292286834
26 -0.056768323645049
27 0.0
28 0.011539725200844
29 -0.059665799686452
30 0.0
31 0.31812558252514
32 -0.44556773323517
33 -0.001337461932656
34 -0.001192696731902
35 0.002530158664558
36 0.0
37 0.0
38 -0.007445660517134
39 0.017694115825741
40 -0.11726369482674
41 1.29085001300353
42 0.0
43 -0.017832023359740
44 -0.007929574500776
45 0.003678135110213
46 -0.012415895960210
47 0.73086589505495
48 0.0
49 0.000128218368401
50 0.002672221018053
51 0.004252512883150
52 -0.083812743348212
53 1.29943749871527
54 0.0
55 -0.014866805495857
56 0.006349170786785
 Sym=      9.1
 Ene=       0.1891
 Spin= Alpha
 Occup=    0.000000
1 0.031236223366760
2 0.052283311073168
3 -0.084601830149005
4 -0.97859057985493
5 0.0
6 -0.045309416629537
7 0.040338162399979
8 0.0
9 -0.023921550958834
10 -0.041835708294674
11 0.0
12 -0.24793995313763
13 0.42018139090771
14 0.004461662945444
15 0.015224235612833
16 -0.019685898558276
17 0.0
18 0.0
19 -0.026548750924552
20 -0.025354772313440
21 -0.043055006258812
22 0.073803289103263
23 0.83502350373512
24 0.0
25 -0.055797845957691
26 0.045234289743303
27 0.0
28 -0.044840124771201
29 -0.047224354557373
30 0.0
31 -0.35904777810660
32 0.49225511295743
33 -0.004379486594712
34 -0.003621556940297
35 0.008001043535008
36 0.0
37 0.0
38 0.022527060893421
39 0.001739085925791
40 -0.039214783304369
41 0.36117416315890
42 0.0
43 0.000918010004891
44 -0.003946407936112
45 0.025340478940693
46 -0.12478926370604
47 1.53069358199509
48 0.0
49 0.020690838001526
50 -0.021832883225525
51 -0.025002463180097
52 0.078554593999376
53 -1.59362909621488
54 0.0
55 0.011918748342000
56 -0.027013380418231
 Sym=     10.1
 Ene=       0.2269
 Spin= Alpha
 Occup=    0.000000
1 0.005629469581407
2 0.009572691838679
3 -0.009658934175174
4 -0.23070525799251
5 0.0
6 0.12311387841923
7 -0.007373688733844
8 0.0
9 0.046958714802699
10 -0.013813804158141
11 0.0
12 1.38036994742098
13 -0.14615680341933
14 0.002660429484372
15 0.004961912082156
16 -0.007622341566528
17 0.0
18 0.0
19 0.017253228964381
20 -0.015206376211823
21 -0.025545046659894
22 0.042249341232222
23 0.73502322355333
24 0.0
25 -0.017136348980693
26 0.022410370265134
27 0.0
28 0.022088382200132
29 -0.002646211248778
30 0.0
31 -0.60783228181402
32 0.25674063208990
33 -0.006958716421900
34 -0.000158628505373
35 0.007117344927273
36 0.0
37 0.0
38 -0.013253136952533
39 0.000680301116421
40 -0.099483345022252
41 2.00514769352029
42 0.0
43 -0.025354269195432
44 -0.009733822864968
45 0.005995953097520
46 0.076094189105064
47 -1.68462852169049
48 0.0
49 -0.022002811122452
50 0.009899629628120
51 0.013379357515035
52 0.053822926198748
53 -1.07180368299163
54 0.0
55 0.003498804309878
56 -0.002927523026095
 Sym=     11.1
 Ene=       0.4344
 Spin= Alpha
 Occup=    0.000000
1 -0.010107835716900
2 -0.012347165498568
3 -0.074831137560317
4 3.12200905135778
5 0.0
6 0.011101662594205
7 0.043663981714034
8 0.0
9 -0.014076219811557
10 -0.056643678186189
11 0.0
12 0.31023920682430
13 3.51656695134306
14 -0.007032001034540
15 0.017460319993248
16 -0.010428318958708
17 0.0
18 0.0
19 -0.007729796062997
20 0.031429134391117
21 0.056215242187179
22 -0.15337451398777
23 -3.97882904614436
24 0.0
25 -0.032236365060681
26 0.056546343950421
27 0.0
28 -0.11148344409167
29 0.095722673290143
30 0.0
31 0.22562751038654
32 2.53481479863109
33 -0.008884211998602
34 0.003522787997465
35 0.005361424001137
36 0.0
37 0.0
38 -0.002151171113965
39 0.021954381258180
40 0.46784583591110
41 0.61940456192048
42 0.0
43 -0.003299474050422
44 0.010395493760914
45 0.026841763688899
46 0.58831952255307
47 0.30304977353055
48 0.0
49 -0.001594032007503
50 0.017566335155374
51 0.012595034420416
52 0.035052878456047
53 -0.73952871810882
54 0.0
55 -0.003818124188544
56 -0.005849248081494
 Sym=     12.1
 Ene=       0.4681
 Spin= Alpha
 Occup=    0.000000
1 -0.005670532697272
2 -0.012027390611800
3 0.12578882190116
4 -1.10854975505633
5 0.0
6 0.021524842228278
7 0.039815736734883
8 0.0
9 0.13830250744442
10 0.10652559841178
11 0.0
12 0.68864576420444
13 -0.18462202907993
14 -0.002696171780233
15 0.002474347342479
16 0.000221824437754
17 0.0
18 0.0
19 0.018593276682770
20 0.003176963784343
21 0.004779708337353
22 0.097733549145226
23 -0.45537625421517
24 0.0
25 0.042921260217704
26 -0.029486463368664
27 0.0
28 0.19779229232548
29 -0.12049525985803
30 0.0
31 0.13993642563749
32 -0.95598721731579
33 -0.002896741625133
34 0.001720531170966
35 0.001176210454166
36 0.0
37 0.0
38 -0.008849390483760
39 0.060204890882452
40 1.00142138503534
41 -0.17187583337213
42 0.0
43 0.045268892170353
44 0.005418169897407
45 -0.042272022172119
46 -0.49722072242108
47 0.28695269831478
48 0.0
49 0.027551914224906
50 0.013914652258660
51 0.087579528248129
52 1.29082888307830
53 -0.035799099281288
54 0.0
55 0.041524598768603
56 -0.027980168419563
 Sym=     13.1
 Ene=       0.4957
 Spin= Alpha
 Occup=    0.000000
1 -0.031161857532231
2 -0.059405220470783
3 0.19635782052424
4 3.46933815487774
5 0.0
6 0.014333345995859
7 0.081463300071338
8 0.0
9 0.013922979928564
10 0.25375771473908
11 0.0
12 0.24380797687124
13 0.61982138398083
14 -0.010772219426696
15 0.019897580402584
16 -0.009125360975888
17 0.0
18 0.0
19 -0.014640474331734
20 0.020200118101536
21 0.029129485607507
22 0.11872727957633
23 -2.39817286294695
24 0.0
25 -0.054479049990875
26 -0.035818509263893
27 0.0
28 -0.22399928733559
29 -0.35358718728294
30 0.0
31 0.34408440018130
32 2.69028057583628
33 0.013632731452899
34 -0.039539270183428
35 0.025906538730528
36 0.0
37 0.0
38 -0.000265980306375
39 -0.016112360459214
40 -0.56308874762659
41 0.45113882821893
42 0.0
43 -0.010883704200688
44 -0.035740969973935
45 -0.022209623251598
46 -0.69412696702304
47 0.057011753278396
48 0.0
49 0.013748078937307
50 -0.029274565811101
51 0.043000350928640
52 0.087502318945988
53 -0.73797722876983
54 0.0
55 0.026888593654960
56 0.008486612646658
 Sym=     14.1
 Ene=       0.5634
 Spin= Alpha
 Occup=    0.000000
1 -0.014003903872974
2 -0.017923403004133
3 -0.27428879352347
4 2.29499384491865
5 0.0
6 0.009528724028178
7 -0.063380347957632
8 0.0
9 0.001641114361413
10 -0.47530601900249
11 0.0
12 0.43774168265489
13 0.69788150327976
14 0.020183245175132
15 0.031635964308871
16 -0.051819209484003
17 0.0
18 0.0
19 -0.017329486320891
20 0.038974484149414
21 0.076839995536737
22 -0.45417767232211