
 Working directory              : /tmp/lme/molpro.s2ASRTbQPZ/
 Global scratch directory       : /tmp/lme/molpro.s2ASRTbQPZ/
 Wavefunction directory         : /home/lme/wfu/
 Main file repository           : /tmp/lme/molpro.s2ASRTbQPZ/

 id        : liedlgroup

 Nodes     nprocs
 sv1-c724     1
 GA implementation: MPI file
 GA implementation (serial work in mppx): MPI file

 Using customized tuning parameters: mindgm=1; mindgv=20; mindgc=4; mindgr=1; noblas=0; minvec=7
 default implementation of scratch files=df  


 Variables initialized (1042), CPU time= 0.00 sec
 
                      orient,mass
                      geometry=/home/lme/Theoretische_Chemie/Nomodeco/pymolpro_integration/water_dimer/water_dimer_isotopes/water_dimer.xyz
 Including file /home/lme/Theoretische_Chemie/Nomodeco/pymolpro_integration/water_dimer/water_dimer_isotopes/water_dimer.xyz
                      mass,H3=2.014                                              ! Set custom mass for hydrogen
                      basis=6-311g(d,p)
                      {hf
                      start, atden}
                      optg;
                      {frequencies, symm=auto, print=0, analytical}
                      put, molden, Water_Dimer_H3.molden
 Commands initialized (847), CPU time= 0.01 sec, 718 directives.
 Default parameters read. Elapsed time= 0.06 sec

 Checking input...
 Passed
1


                                         ***  PROGRAM SYSTEM MOLPRO  ***
                                       Copyright, TTI GmbH Stuttgart, 2015
                                    Version 2024.1 linked Wed Jan 31 11:42:09 2024


 **********************************************************************************************************************************
 LABEL *                                                                                                                                                                 
  (6 PROC) 64 bit serial version                                                         DATE: 18-Sep-24          TIME: 11:36:54  
 **********************************************************************************************************************************

 SHA1:             675817fde4514a4a933b69e420913a90cee4ef91
 **********************************************************************************************************************************

 Memory per process:        32 MW
 Total memory per node:     32 MW

 GA preallocation disabled
 GA check disabled

 Variable memory set to 32.0 MW

 ZCENTRE=MASS


 Geometry recognized as XYZ


 SETTING MASS FOR H3   (Z=  1)   TO   2.014
 SETTING BASIS          =    6-311G(D,P)


 Recomputing integrals since basis changed


 Using spherical harmonics

 Library entry O      S 6-311G               selected for orbital group  1
 Library entry O      P 6-311G               selected for orbital group  1
 Library entry O      D 6-311G*              selected for orbital group  1
 Library entry H      S 6-311G               selected for orbital group  2
 Library entry H      P 6-311G**             selected for orbital group  2


 PROGRAM * SEWARD (Integral evaluation for generally contracted gaussian basis sets)     Author: Roland Lindh, 1990

 Geometry written to block  1 of record 700

 Orientation using atomic masses  
 Molecule type: Asymmetric top
 Rotational constants:       5.6836103      5.8607015    183.6609718 GHz  (calculated with average atomic masses)

 Point group  C1  



 ATOMIC COORDINATES

 NR  ATOM    CHARGE       X              Y              Z

   1  O1      8.00    0.015795650    0.133196500   -2.910356836
   2  H2      1.00   -0.207751909    1.063793760   -1.479548998
   3  H3      1.00   -0.081555774   -1.523603384   -2.453485483
   4  O4      8.00    0.024666882    0.033149722    2.836143106
   5  H5      1.00   -0.198880677    0.963746982    4.266950944
   6  H6      1.00   -0.072684541   -1.623650162    3.293014459

 Bond lengths in Bohr (Angstrom)

 1-2  1.721393575  1-3  1.721393211  4-5  1.721393575  4-6  1.721393211
     ( 0.910922251)     ( 0.910922058)     ( 0.910922251)     ( 0.910922058)

 Bond angles

  2-1-3  107.00002446   5-4-6  107.00002446

 NUCLEAR CHARGE:                   20
 NUMBER OF PRIMITIVE AOS:          96
 NUMBER OF SYMMETRY AOS:           94
 NUMBER OF CONTRACTIONS:           60   (   60A   )
 NUMBER OF INNER CORE ORBITALS:     0   (    0A   )
 NUMBER OF OUTER CORE ORBITALS:     2   (    2A   )
 NUMBER OF VALENCE ORBITALS:       12   (   12A   )


 NUCLEAR REPULSION ENERGY   36.71638738


 Eigenvalues of metric

         1 0.147E-01 0.154E-01 0.316E-01 0.343E-01 0.742E-01 0.853E-01 0.888E-01 0.935E-01


 Contracted 2-electron integrals neglected if value below      1.0D-11
 AO integral compression algorithm  1   Integral accuracy      1.0D-11

     5.767 MB (compressed) written to integral file ( 36.2%)


 NUMBER OF SORTED TWO-ELECTRON INTEGRALS:    1675365.     BUFFER LENGTH:  32768
 NUMBER OF SEGMENTS:   1  SEGMENT LENGTH:    1675365      RECORD LENGTH: 524288

 Memory used in sort:       2.23 MW

 SORT1 READ     2065183. AND WROTE     1171316. INTEGRALS IN      4 RECORDS. CPU TIME:     0.02 SEC, REAL TIME:     0.03 SEC
 SORT2 READ     1171316. AND WROTE     1675365. INTEGRALS IN     22 RECORDS. CPU TIME:     0.05 SEC, REAL TIME:     0.06 SEC

 FILE SIZES:   FILE 1:    36.0 MBYTE,  FILE 4:    16.8 MBYTE,   TOTAL:     52.8 MBYTE

 OPERATOR DM      FOR CENTER  0  COORDINATES:    0.000000    0.000000    0.000000


 **********************************************************************************************************************************
 DATASETS  * FILE   NREC   LENGTH (MB)   RECORD NAMES
              1      19       33.04       500      610      700      900      950      970     1000      129      960     1100   
                                          VAR    BASINP    GEOM    SYMINP    ZMAT    AOBASIS   BASIS     P2S    ABASIS      S 
                                         1400     1410     1200     1210     1080     1600     1650     1300     1700   
                                           T        V       H0       H01     AOSYM     SMH    MOLCAS    ERIS     OPER   

 PROGRAMS   *        TOTAL       INT
 CPU TIMES  *         0.37      0.26
 REAL TIME  *         0.43 SEC
 DISK USED  *        50.78 MB
 **********************************************************************************************************************************


 Program * Restricted Hartree-Fock

 Orbital guess generated from atomic densities.

 Initial occupancy:  10

 NELEC=   20   SYM=1   MS2= 0   THRE=1.0D-08   THRD=1.0D-06   THRG=1.0D-06  HFMA2=F  DIIS_START=2   DIIS_MAX=10   DIIS_INCORE=F

 Level shifts:    0.00 (CLOSED)    0.00 (OPEN)    0.30 (GAP_MIN)

 ITER           ETOT              DE          GRAD        DDIFF     DIIS  NEXP   TIME(IT)  TIME(TOT)  DIAG
   1     -152.02452425    -152.02452425     0.00D+00     0.62D-01     0     0       0.02      0.04    start
   2     -152.07948999      -0.05496575     0.14D-01     0.97D-02     1     0       0.01      0.05    diag
   3     -152.09484053      -0.01535053     0.72D-02     0.31D-02     2     0       0.00      0.05    diag
   4     -152.09518536      -0.00034484     0.76D-03     0.67D-03     3     0       0.02      0.07    diag
   5     -152.09520964      -0.00002428     0.18D-03     0.24D-03     4     0       0.01      0.08    diag
   6     -152.09521049      -0.00000084     0.29D-04     0.45D-04     5     0       0.00      0.08    diag
   7     -152.09521051      -0.00000003     0.68D-05     0.57D-05     6     0       0.02      0.10    diag
   8     -152.09521052      -0.00000000     0.27D-05     0.23D-05     7     0       0.00      0.10    fixocc
   9     -152.09521052      -0.00000000     0.36D-06     0.45D-06     8     0       0.01      0.11    diag
  10     -152.09521052      -0.00000000     0.53D-07     0.59D-07     0     0       0.02      0.13    diag/orth

 Final occupancy:  10

 !RHF STATE 1.1 Energy               -152.095210519236
  RHF One-electron energy            -282.777287508702
  RHF Two-electron energy              93.965689611085
  RHF Kinetic energy                  152.493960255204
  RHF Nuclear energy                   36.716387378381
  RHF Virial quotient                  -0.997385144072

 !RHF STATE 1.1 Dipole moment          -0.25219096    -0.56105239     1.62047926
 Dipole moment /Debye                  -0.64100548    -1.42605294     4.11884744

 Orbital energies:

           1.1          2.1          3.1          4.1          5.1          6.1          7.1          8.1          9.1         10.1
    -20.559673   -20.507767    -1.388547    -1.337674    -0.761402    -0.712154    -0.605558    -0.546585    -0.526639    -0.476953

          11.1         12.1
      0.134739     0.192871


 HOMO     10.1    -0.476953 =     -12.9786eV
 LUMO     11.1     0.134739 =       3.6664eV
 LUMO-HOMO         0.611692 =      16.6450eV

 Orbitals saved in record  2100.2


 **********************************************************************************************************************************
 DATASETS  * FILE   NREC   LENGTH (MB)   RECORD NAMES
              1      19       33.04       500      610      700      900      950      970     1000      129      960     1100   
                                          VAR    BASINP    GEOM    SYMINP    ZMAT    AOBASIS   BASIS     P2S    ABASIS      S 
                                         1400     1410     1200     1210     1080     1600     1650     1300     1700   
                                           T        V       H0       H01     AOSYM     SMH    MOLCAS    ERIS     OPER   

              2       4        0.52       700     1000      520     2100   
                                         GEOM     BASIS   MCVARS     RHF  

 PROGRAMS   *        TOTAL    HF-SCF       INT
 CPU TIMES  *         0.50      0.13      0.26
 REAL TIME  *         0.57 SEC
 DISK USED  *        50.78 MB
 **********************************************************************************************************************************


 PROGRAM * OPT (Geometry optimization)     Authors: F. Eckert and H.-J. Werner


 BFGS update of hessian

 *** Long output written to logfile /home/lme/Theoretische_Chemie/Nomodeco/pymolpro_integration/water_dimer/water_dimer_isotopes/Water_Dimer_H3.molpro/run/Water_Dimer_H3_1.molpro/Water_Dimer_H3_1.log ***


 Geometry optimization using default procedure for command HF-SCF

 Geometry written to block  1 of record 700

 PQS Optimization using delocalized internal coordinates

 Point group c1. Number of degrees of freedom:   12

 ITER.   ENERGY(OLD)    ENERGY(NEW)      DE          GRADMAX     GRADNORM    GRADRMS     STEPMAX     STEPLEN     STEPRMS   CPU-time
   1  -152.09521052  -152.09971843    -0.00450792  0.04450887  0.07840469  0.02263348  0.06493512  0.12504928  0.03609862      0.58
   2  -152.09971843  -152.09989871    -0.00018028  0.00255645  0.00593123  0.00171220  0.04944551  0.06641901  0.01917352      1.16
   3  -152.09989871  -152.10015318    -0.00025446  0.00269630  0.00372799  0.00107618  0.14874810  0.19276046  0.05564515      1.74
   4  -152.10015318  -152.10046628    -0.00031311  0.00311269  0.00472874  0.00136507  0.29055588  0.40218706  0.11610140      2.32
   5  -152.10046628  -152.10095696    -0.00049067  0.00514776  0.00821712  0.00237208  0.26882998  0.35817415  0.10339597      2.92
   6  -152.10095696  -152.10176344    -0.00080648  0.00456861  0.00732461  0.00211443  0.34814463  0.50000000  0.14433757      3.50
   7  -152.10176344  -152.10229502    -0.00053158  0.00222309  0.00409451  0.00118198  0.32727455  0.50000000  0.14433757      4.10
   8  -152.10229502  -152.10241525    -0.00012023  0.00109914  0.00184023  0.00053123  0.31226275  0.43062908  0.12431191      4.72
   9  -152.10241525  -152.10259107    -0.00017582  0.00127383  0.00191982  0.00055420  0.23292410  0.46632947  0.13461772      5.33
  10  -152.10259107  -152.10268032    -0.00008925  0.00137554  0.00198114  0.00057191  0.24989003  0.43015796  0.12417591      5.93
  11  -152.10268032  -152.10283344    -0.00015313  0.00129151  0.00199838  0.00057688  0.28125544  0.43391606  0.12526078      6.55
  12  -152.10283344  -152.10287960    -0.00004616  0.00091091  0.00188514  0.00054419  0.15165059  0.24088968  0.06953886      7.16
  13  -152.10287960  -152.10289558    -0.00001598  0.00082916  0.00124404  0.00035912  0.04753118  0.07304300  0.02108570      7.75
  14  -152.10289558  -152.10289872    -0.00000314  0.00039729  0.00064963  0.00018753  0.03966087  0.05064662  0.01462042      8.35
  15  -152.10289872  -152.10289952    -0.00000080  0.00036602  0.00053974  0.00015581  0.06581784  0.08169315  0.02358278      8.93
  16  -152.10289952  -152.10289957    -0.00000004  0.00036201  0.00051903  0.00014983  0.10074953  0.12487242  0.03604756      9.48
  17  -152.10289957  -152.10290207    -0.00000250  0.00030990  0.00049895  0.00014404  0.02132673  0.02508093  0.00724024     10.05
  18  -152.10290207  -152.10290583    -0.00000376  0.00027726  0.00042654  0.00012313  0.05241336  0.06278256  0.01812376     10.65
  19  -152.10290583  -152.10290712    -0.00000129  0.00021647  0.00036127  0.00010429  0.00692692  0.01121813  0.00323840     11.23
  20  -152.10290712  -152.10291031    -0.00000319  0.00018284  0.00028108  0.00008114  0.01102799  0.02113354  0.00610073     11.81
  21  -152.10291031  -152.10291197    -0.00000166  0.00010160  0.00018735  0.00005408  0.03086522  0.03429676  0.00990062     12.45
  22  -152.10291197  -152.10291268    -0.00000070  0.00012371  0.00020133  0.00005812  0.02990375  0.03299185  0.00952393     13.05

 END OF GEOMETRY OPTIMIZATION.

 Geometry written to block  1 of record 700

 Recomputing wavefunction for reoriented structure

 Current geometry (xyz format, in Angstrom)

    6
 HF-SCF000/6-311G(D,P)  ENERGY=-152.10291268
 O          0.1115051857        0.0007364782       -1.4779612039
 H          0.0526329565       -0.0050128546       -0.5347384919
 H         -0.7786364610       -0.0037507365       -1.7811866204
 O         -0.0590922733       -0.0004911080        1.4962770083
 H          0.3288174914        0.7571576142        1.8992272391
 H          0.3424008552       -0.7485451339        1.9038287837

 **********************************************************************************************************************************


 **********************************************************************************************************************************
 DATASETS  * FILE   NREC   LENGTH (MB)   RECORD NAMES
              1      19       33.04       500      610      700      900      950      970     1000      129      960     1100   
                                          VAR    BASINP    GEOM    SYMINP    ZMAT    AOBASIS   BASIS     P2S    ABASIS      S 
                                         1400     1410     1200     1210     1080     1600     1650     1300     1700   
                                           T        V       H0       H01     AOSYM     SMH    MOLCAS    ERIS     OPER   

              2       4        0.52       700     1000      520     2100   
                                         GEOM     BASIS   MCVARS     RHF  

 PROGRAMS   *        TOTAL      OPTG    HF-SCF       INT
 CPU TIMES  *        13.88     13.38      0.13      0.26
 REAL TIME  *        15.29 SEC
 DISK USED  *        51.72 MB
 **********************************************************************************************************************************


 PROGRAM * HESSIAN

 PROGRAM * MCKINLEY (Hessian of the energy)     Author: A. Bernhardsson, R. Lindh

 Orbitals from record         2100.2

 Number of closed-shell orbitals: 10 ( 10 )
 Number of occupied orbitals:     10 ( 10 )

 Number of electrons= 20     Singlet     Space symmetry=1      Wavefunction type: CLOSED          


 McKinley needed      2.39 seconds of CPU time

 Entering CPHF calculation

 CPHF needed 139 iterations for 18 perturbations.  Total CPU time:    1.88 sec


 HF-SCF hessian saved to record  5300.2

 PROGRAM * FREQUENCIES (Calculation of harmonic vibrational spectra for HF-SCF)


 Permanent Dipole Moment [debye]
     1-   3    0.000000    0.000000    0.000000

 Dipole Moment Norm    0.0000000 [debye]

 Dipole Moment Derivatives [debye/ang]
              1             2             3             4             5             6             7             8
    1    0.00000000    0.00000000    0.00000000    0.00000000    0.00000000    0.00000000    0.00000000    0.00000000
    2    0.00000000    0.00000000    0.00000000    0.00000000    0.00000000    0.00000000    0.00000000    0.00000000
    3    0.00000000    0.00000000    0.00000000    0.00000000    0.00000000    0.00000000    0.00000000    0.00000000
              9            10            11            12            13            14            15            16
    1    0.00000000    0.00000000    0.00000000    0.00000000    0.00000000    0.00000000    0.00000000    0.00000000
    2    0.00000000    0.00000000    0.00000000    0.00000000    0.00000000    0.00000000    0.00000000    0.00000000
    3    0.00000000    0.00000000    0.00000000    0.00000000    0.00000000    0.00000000    0.00000000    0.00000000
             17            18
    1    0.00000000    0.00000000
    2    0.00000000    0.00000000
    3    0.00000000    0.00000000

 Projecting out rotations and translations

 Force Constants (Second Derivatives of the Energy) in [a.u.]
                             O1X1        O1Y1        O1Z1        H2X2        H2Y2    
           O1X1          0.6216345
           O1Y1          0.0036307   0.0045697
           O1Z1          0.1216694  -0.0030995   0.7057481
           H2X2         -0.0618893  -0.0008411   0.0756060   0.0644375
           H2Y2         -0.0004422  -0.0066225   0.0038505   0.0004690   0.0111961
           H2Z2          0.0131030   0.0034442  -0.5918096  -0.0185076  -0.0035944
           H3X3         -0.5624405  -0.0027978  -0.1973744   0.0010618  -0.0000401
           H3Y3         -0.0031755  -0.0010016  -0.0007669   0.0003504   0.0008459
           H3Z3         -0.1345613  -0.0003259  -0.1072920  -0.0568488  -0.0002912
           O4X4          0.0037551   0.0000049   0.0000763  -0.0050038   0.0000124
           O4Y4         -0.0000302   0.0046176   0.0000209   0.0000453  -0.0072152
           O4Z4         -0.0020211  -0.0000506  -0.0066107   0.0034258   0.0000779
           H5X5         -0.0005361   0.0000852   0.0000022   0.0007042   0.0001492
           H5Y5         -0.0000084  -0.0007765   0.0010385   0.0000313   0.0008833
           H5Z5          0.0008894   0.0016937  -0.0000091  -0.0018065  -0.0034145
           H6X6         -0.0005237  -0.0000819   0.0000205   0.0006896  -0.0001482
           H6Y6          0.0000256  -0.0007868  -0.0010434  -0.0000549   0.0009124
           H6Z6          0.0009206  -0.0016618  -0.0000267  -0.0018688   0.0033717
                             H2Z2        H3X3        H3Y3        H3Z3        O4X4    
           H2Z2          0.6098863
           H3X3          0.0064081   0.5616354
           H3Y3          0.0001446   0.0028354   0.0005220
           H3Z3         -0.0153429   0.1904440   0.0006196   0.1231707
           O4X4         -0.0016892  -0.0003058  -0.0000086   0.0011066   0.2600963
           O4Y4          0.0000116   0.0000054  -0.0007818  -0.0000060  -0.0041533
           O4Z4         -0.0019113   0.0006636   0.0000072  -0.0007709   0.2634604
           H5X5          0.0003597   0.0000266  -0.0001824  -0.0000714  -0.1258663
           H5Y5         -0.0020609  -0.0000400   0.0002065  -0.0000859  -0.1650472
           H5Z5         -0.0003929  -0.0000695  -0.0001870   0.0001137  -0.1290235
           H6X6          0.0003261   0.0000224   0.0001806  -0.0000690  -0.1326756
           H6Y6          0.0020549   0.0000372   0.0002089   0.0000893   0.1691918
           H6Z6         -0.0004296  -0.0000718   0.0001825   0.0001213  -0.1339306
                             O4Y4        O4Z4        H5X5        H5Y5        H5Z5    
           O4Y4          0.8122231
           O4Z4          0.0007487   0.2878195
           H5X5         -0.2095721  -0.1305737   0.1167281
           H5Y5         -0.4090249  -0.1711021   0.1868894   0.4409644
           H5Z5         -0.2157538  -0.1380879   0.1208949   0.1947214   0.1287333
           H6X6          0.2137049  -0.1349550   0.0089435  -0.0218250   0.0091152
           H6Y6         -0.3998189   0.1703189   0.0226307  -0.0322528   0.0229401
           H6Z6          0.2149786  -0.1404388   0.0093883  -0.0225110   0.0096427
                             H6X6        H6Y6        H6Z6    
           H6X6          0.1235438
           H6Y6         -0.1918303   0.4317372
           H6Z6          0.1255623  -0.1943599   0.1311311


 Atomic Masses
     1-   6   15.999400    1.007940    2.014000   15.999400    1.007940    1.007940

 Mass weighted Second Derivative Matrix
                             O1X1        O1Y1        O1Z1        H2X2        H2Y2    
           O1X1          0.0388536
           O1Y1          0.0002269   0.0002856
           O1Z1          0.0076046  -0.0001937   0.0441109
           H2X2         -0.0154115  -0.0002095   0.0188273   0.0639299
           H2Y2         -0.0001101  -0.0016491   0.0009588   0.0004653   0.0111079
           H2Z2          0.0032629   0.0008577  -0.1473713  -0.0183618  -0.0035661
           H3X3         -0.0990821  -0.0004929  -0.0347704   0.0007452  -0.0000282
           H3Y3         -0.0005594  -0.0001764  -0.0001351   0.0002459   0.0005937
           H3Z3         -0.0237049  -0.0000574  -0.0189010  -0.0399001  -0.0002044
           O4X4          0.0002347   0.0000003   0.0000048  -0.0012460   0.0000031
           O4Y4         -0.0000019   0.0002886   0.0000013   0.0000113  -0.0017967
           O4Z4         -0.0001263  -0.0000032  -0.0004132   0.0008531   0.0000194
           H5X5         -0.0001335   0.0000212   0.0000005   0.0006986   0.0001480
           H5Y5         -0.0000021  -0.0001934   0.0002586   0.0000311   0.0008763
           H5Z5          0.0002215   0.0004218  -0.0000023  -0.0017923  -0.0033876
           H6X6         -0.0001304  -0.0000204   0.0000051   0.0006841  -0.0001471
           H6Y6          0.0000064  -0.0001959  -0.0002598  -0.0000545   0.0009052
           H6Z6          0.0002292  -0.0004138  -0.0000067  -0.0018541   0.0033451
                             H2Z2        H3X3        H3Y3        H3Z3        O4X4    
           H2Z2          0.6050820
           H3X3          0.0044976   0.2788656
           H3Y3          0.0001015   0.0014078   0.0002592
           H3Z3         -0.0107686   0.0945601   0.0003077   0.0611572
           O4X4         -0.0004207  -0.0000539  -0.0000015   0.0001949   0.0162566
           O4Y4          0.0000029   0.0000010  -0.0001377  -0.0000011  -0.0002596
           O4Z4         -0.0004760   0.0001169   0.0000013  -0.0001358   0.0164669
           H5X5          0.0003569   0.0000187  -0.0001280  -0.0000501  -0.0313430
           H5Y5         -0.0020447  -0.0000281   0.0001449  -0.0000603  -0.0410997
           H5Z5         -0.0003898  -0.0000488  -0.0001313   0.0000798  -0.0321292
           H6X6          0.0003235   0.0000157   0.0001268  -0.0000484  -0.0330386
           H6Y6          0.0020388   0.0000261   0.0001466   0.0000627   0.0421318
           H6Z6         -0.0004263  -0.0000504   0.0001281   0.0000852  -0.0333511
                             O4Y4        O4Z4        H5X5        H5Y5        H5Z5    
           O4Y4          0.0507658
           O4Z4          0.0000468   0.0179894
           H5X5         -0.0521872  -0.0325152   0.1158086
           H5Y5         -0.1018546  -0.0426075   0.1854172   0.4374908
           H5Z5         -0.0537266  -0.0343864   0.1199426   0.1931875   0.1277193
           H6X6          0.0532164  -0.0336062   0.0088731  -0.0216531   0.0090434
           H6Y6         -0.0995621   0.0424125   0.0224524  -0.0319987   0.0227594
           H6Z6          0.0535335  -0.0349718   0.0093143  -0.0223336   0.0095667
                             H6X6        H6Y6        H6Z6    
           H6X6          0.1225706
           H6Y6         -0.1903192   0.4283362
           H6Z6          0.1245732  -0.1928289   0.1300981


 Mass Weighted 2nd Derivative Matrix Eigenvalues
     1-  10    0.000000    0.000000    0.000000    0.000000    0.000000    0.000000    0.000415    0.000603    0.000663    0.001069
    11-  18    0.003466    0.013937    0.095074    0.115822    0.351677    0.641841    0.648185    0.677936

 Mass Weighted 2nd Derivative Matrix Eigenvectors
              1             2             3             4             5             6             7             8
    1   -0.53026779    0.46586288   -0.26775947   -0.39671319    0.24709375   -0.21897790    0.00096115    0.01264510
    2    0.65676703   -0.04661139   -0.12373010   -0.38145637    0.43061030   -0.35919540   -0.09304941   -0.00948334
    3    0.05872326    0.29134268   -0.14038518    0.50442787    0.20526289   -0.17225781    0.00572692   -0.16412063
    4   -0.09125534    0.09169895   -0.01848286   -0.07440732    0.08850158    0.01053462   -0.00542743    0.40186976
    5    0.14199531    0.03797712   -0.04022734   -0.07624865    0.03931632   -0.03111658   -0.32839114    0.00323966
    6    0.01721142    0.07185364   -0.03225079    0.12829858    0.05275378   -0.03878795   -0.00077522   -0.01654236
    7   -0.20680757    0.17414090   -0.12106390   -0.15231004    0.07781292   -0.10631782    0.00001342   -0.18989109
    8    0.19434576    0.33545533    0.52314848   -0.12668640   -0.12869567   -0.31757358    0.54383235    0.02160436
    9    0.07621729    0.07216380    0.01831381    0.21277017    0.10592115    0.02572972   -0.00552275    0.50971318
   10   -0.00720741    0.16851960    0.37385401   -0.07963557    0.56340443    0.59530869   -0.00277865    0.13193738
   11    0.37198747    0.56000692   -0.26520689   -0.13735488   -0.41870219    0.39014198   -0.16342648   -0.00022424
   12    0.08860761    0.27453793   -0.10364167    0.52271567    0.22305541   -0.12524237    0.00155868   -0.17672969
   13   -0.01295219    0.25308063    0.44760151    0.00112120   -0.03225462    0.08080410   -0.27500480   -0.36926774
   14    0.09937407    0.04137890   -0.25141789   -0.03177601   -0.03394625    0.17563878    0.28709713    0.00464860
   15    0.02167268    0.05247627   -0.01900578    0.10580214    0.08939750   -0.11150474   -0.35173450    0.33207527
   16    0.04473141   -0.18592885   -0.21169590   -0.01927469    0.33429694    0.27246900    0.28765442   -0.34021744
   17    0.09979210    0.03757813   -0.25753840   -0.03186992   -0.03090617    0.17768952    0.29439328    0.00024916
   18   -0.01181547    0.10472170   -0.07555115    0.13527864    0.00213541   -0.00624676    0.33128956    0.32195513
              9            10            11            12            13            14            15            16
    1   -0.00175236    0.00665803    0.09750311    0.00093504   -0.24437833    0.00687353   -0.30694337   -0.00233092
    2    0.25599633    0.00267487    0.00098740   -0.13006930   -0.00265463    0.00005656   -0.00156744    0.00126297
    3    0.00392092   -0.64310157   -0.17766538   -0.00196543    0.15767807   -0.00088144   -0.10133011   -0.22319390
    4    0.01370693    0.01085009    0.39083192   -0.00572912    0.80725370   -0.02881895   -0.02935813   -0.03583877
    5   -0.26814910   -0.00558545    0.00340880    0.88802612    0.00506809   -0.00004508    0.00013759   -0.00543159
    6   -0.00016560   -0.15975322   -0.02223077    0.00488467    0.06452744   -0.00471693   -0.05895840    0.89395688
    7   -0.00310300   -0.00186726   -0.17020551   -0.00043303    0.14365725   -0.00378204    0.88586388    0.03256944
    8   -0.37938827   -0.00184801   -0.00345802    0.04841847    0.00397006   -0.00011204    0.00432549    0.00024257
    9    0.01556400   -0.21710904    0.52978131    0.00015414   -0.48683398    0.01403490    0.32619582   -0.00148862
   10    0.00412719   -0.00636923   -0.28860854    0.00086275   -0.02103279   -0.18408240    0.00006009   -0.05353389
   11   -0.07310969   -0.00152708   -0.00064649   -0.15774631   -0.00009599   -0.00229204   -0.00000258   -0.00058087
   12   -0.01248131    0.67250770    0.15479974    0.00108526   -0.00132986   -0.20002553    0.00045657   -0.05527803
   13    0.36249632   -0.00163723    0.30706941    0.02391308    0.02375233    0.37383590   -0.00009501    0.10415301
   14    0.03990679   -0.00004817   -0.00409133    0.09456903   -0.01303012   -0.40933515    0.00007643    0.22081892
   15   -0.45911617    0.16772699   -0.31529907   -0.27275445    0.00050773    0.39386633   -0.00012865    0.10812847
   16   -0.38127864   -0.00772402    0.30408402   -0.02473450    0.02336157    0.36635398   -0.00009754    0.10822028
   17    0.03588226    0.00367293    0.00421240    0.09566022    0.01330897    0.41844508   -0.00007318   -0.21844782
   18    0.47138699    0.18176347   -0.32024473    0.27115861    0.00021792    0.39145288   -0.00011410    0.10948982
             17            18
    1    0.00104152    0.00000114
    2   -0.00052066   -0.00004728
    3    0.09290455    0.00000121
    4    0.01378536    0.00000542
    5    0.00222582   -0.00065149
    6   -0.37365524   -0.00000441
    7   -0.01353871   -0.00000104
    8   -0.00009940    0.00006922
    9    0.00061065   -0.00000078
   10   -0.12511914    0.00239582
   11   -0.00142448   -0.27266584
   12   -0.12912859    0.00077276
   13    0.24495865    0.28006842
   14    0.53218023    0.54725659
   15    0.25679511    0.29207860
   16    0.25473618   -0.28962219
   17   -0.52651581    0.53982410
   18    0.26031859   -0.29515671

   Low Vibration      Wavenumber
        Nr             [1/cm] 
        1                0.00
        2                0.00
        3                0.00
        4                0.00
        5                0.00
        6                0.00

     Vibration        Wavenumber
        Nr             [1/cm] 
        1              104.69
        2              126.20
        3              132.35
        4              168.07
        5              302.62
        6              606.86
        7             1585.02
        8             1749.45
        9             3048.43
       10             4118.30
       11             4138.60
       12             4232.52

 FREQUENCIES * CALCULATION OF NORMAL MODES FOR HF-SCF


 Atomic Coordinates

  Nr  Atom  Charge       X              Y              Z

   1   O1    8.00    0.210714262    0.001391742   -2.792941898
   2   H2    1.00    0.099461873   -0.009472922   -1.010509298
   3   H3    1.00   -1.471409662   -0.007087865   -3.365954889
   4   O4    8.00   -0.111668213   -0.000928060    2.827553752
   5   H5    1.00    0.621375004    1.430820524    3.589019330
   6   H6    1.00    0.647043841   -1.414545295    3.597714989

 Gradient norm at reference geometry: 0.37928D-03

 Normal Modes

                              1 A         2 A         3 A         4 A         5 A  
 Wavenumbers [cm-1]          104.69      126.20      132.35      168.07      302.62
 Intensities [km/mol]          0.00        0.00        0.00        0.00        0.00
 Intensities [relative]        0.00        0.00        0.00        0.00        0.00
           O1X1             0.00024     0.00316    -0.00044     0.00166     0.02438
           O1Y1            -0.02326    -0.00237     0.06400     0.00067     0.00025
           O1Z1             0.00143    -0.04103     0.00098    -0.16078    -0.04442
           H2X2            -0.00541     0.40028     0.01365     0.01081     0.38929
           H2Y2            -0.32710     0.00323    -0.26709    -0.00556     0.00340
           H2Z2            -0.00077    -0.01648    -0.00016    -0.15912    -0.02214
           H3X3             0.00001    -0.13381    -0.00219    -0.00132    -0.11993
           H3Y3             0.38321     0.01522    -0.26733    -0.00130    -0.00244
           H3Z3            -0.00389     0.35917     0.01097    -0.15298     0.37331
           O4X4            -0.00069     0.03298     0.00103    -0.00159    -0.07215
           O4Y4            -0.04086    -0.00006    -0.01828    -0.00038    -0.00016
           O4Z4             0.00039    -0.04418    -0.00312     0.16813     0.03870
           H5X5            -0.27392    -0.36781     0.36107    -0.00163     0.30586
           H5Y5             0.28596     0.00463     0.03975    -0.00005    -0.00408
           H5Z5            -0.35035     0.33076    -0.45730     0.16707    -0.31405
           H6X6             0.28652    -0.33887    -0.37977    -0.00769     0.30288
           H6Y6             0.29323     0.00025     0.03574     0.00366     0.00420
           H6Z6             0.32998     0.32068     0.46953     0.18105    -0.31898

                              6 A         7 A         8 A         9 A        10 A  
 Wavenumbers [cm-1]          606.86     1585.02     1749.45     3048.43     4118.30
 Intensities [km/mol]          0.00        0.00        0.00        0.00        0.00
 Intensities [relative]        0.00        0.00        0.00        0.00        0.00
           O1X1             0.00023    -0.06110     0.00172    -0.07674    -0.00058
           O1Y1            -0.03252    -0.00066     0.00001    -0.00039     0.00032
           O1Z1            -0.00049     0.03942    -0.00022    -0.02533    -0.05580
           H2X2            -0.00571     0.80407    -0.02871    -0.02924    -0.03570
           H2Y2             0.88452     0.00505    -0.00004     0.00014    -0.00541
           H2Z2             0.00487     0.06427    -0.00470    -0.05873     0.89043
           H3X3            -0.00031     0.10123    -0.00266     0.62422     0.02295
           H3Y3             0.03412     0.00280    -0.00008     0.00305     0.00017
           H3Z3             0.00011    -0.34305     0.00989     0.22985    -0.00105
           O4X4             0.00022    -0.00526    -0.04602     0.00002    -0.01338
           O4Y4            -0.03944    -0.00002    -0.00057    -0.00000    -0.00015
           O4Z4             0.00027    -0.00033    -0.05001     0.00011    -0.01382
           H5X5             0.02382     0.02366     0.37236    -0.00009     0.10374
           H5Y5             0.09420    -0.01298    -0.40772     0.00008     0.21995
           H5Z5            -0.27168     0.00051     0.39231    -0.00013     0.10770
           H6X6            -0.02464     0.02327     0.36491    -0.00010     0.10779
           H6Y6             0.09528     0.01326     0.41679    -0.00007    -0.21759
           H6Z6             0.27009     0.00022     0.38991    -0.00011     0.10906

                             11 A        12 A  
 Wavenumbers [cm-1]         4138.60     4232.52
 Intensities [km/mol]          0.00        0.00
 Intensities [relative]        0.00        0.00
           O1X1             0.00026     0.00000
           O1Y1            -0.00013    -0.00001
           O1Z1             0.02323     0.00000
           H2X2             0.01373     0.00001
           H2Y2             0.00222    -0.00065
           H2Z2            -0.37218    -0.00000
           H3X3            -0.00954    -0.00000
           H3Y3            -0.00007     0.00005
           H3Z3             0.00043    -0.00000
           O4X4            -0.03128     0.00060
           O4Y4            -0.00036    -0.06817
           O4Z4            -0.03228     0.00019
           H5X5             0.24399     0.27896
           H5Y5             0.53008     0.54510
           H5Z5             0.25578     0.29093
           H6X6             0.25373    -0.28848
           H6Y6            -0.52444     0.53769
           H6Z6             0.25929    -0.29399


 Normal Modes of low/zero frequencies

                                  1           2           3           4           5
 Wavenumbers [cm-1]            0.00        0.00        0.00        0.00        0.00
 Intensities [km/mol]          0.00        0.00        0.00        0.00        0.00
 Intensities [relative]        0.00        0.00        0.00        0.00        0.00
           O1X1            -0.13257     0.11647    -0.06694    -0.09918     0.06177
           O1Y1             0.16419    -0.01165    -0.03093    -0.09537     0.10765
           O1Z1             0.01468     0.07284    -0.03510     0.12611     0.05132
           H2X2            -0.09090     0.09134    -0.01841    -0.07411     0.08815
           H2Y2             0.14143     0.03783    -0.04007    -0.07595     0.03916
           H2Z2             0.01714     0.07157    -0.03212     0.12779     0.05255
           H3X3            -0.14573     0.12271    -0.08531    -0.10732     0.05483
           H3Y3             0.13694     0.23638     0.36863    -0.08927    -0.09068
           H3Z3             0.05371     0.05085     0.01290     0.14993     0.07464
           O4X4            -0.00180     0.04213     0.09347    -0.01991     0.14085
           O4Y4             0.09300     0.14000    -0.06630    -0.03434    -0.10468
           O4Z4             0.02215     0.06864    -0.02591     0.13068     0.05576
           H5X5            -0.01290     0.25208     0.44584     0.00112    -0.03213
           H5Y5             0.09898     0.04122    -0.25043    -0.03165    -0.03381
           H5Z5             0.02159     0.05227    -0.01893     0.10538     0.08904
           H6X6             0.04455    -0.18520    -0.21086    -0.01920     0.33298
           H6Y6             0.09940     0.03743    -0.25652    -0.03174    -0.03078
           H6Z6            -0.01177     0.10431    -0.07525     0.13474     0.00213

                                  6
 Wavenumbers [cm-1]            0.00
 Intensities [km/mol]          0.00
 Intensities [relative]        0.00
           O1X1            -0.05475
           O1Y1            -0.08980
           O1Z1            -0.04307
           H2X2             0.01049
           H2Y2            -0.03099
           H2Z2            -0.03863
           H3X3            -0.07492
           H3Y3            -0.22378
           H3Z3             0.01813
           O4X4             0.14883
           O4Y4             0.09754
           O4Z4            -0.03131
           H5X5             0.08049
           H5Y5             0.17495
           H5Z5            -0.11106
           H6X6             0.27139
           H6Y6             0.17699
           H6Z6            -0.00622


 Frequencies dumped to record   5400.2
 Frequency information read from record  5400.2

 Zero point energy:  0.04627666 [H]    10156.55 [1/CM]      121.50 [KJ/MOL]


 **********************************************************************************************************************************
 DATASETS  * FILE   NREC   LENGTH (MB)   RECORD NAMES
              1      19       33.04       500      610      700      900      950      970     1000      129      960     1100   
                                          VAR    BASINP    GEOM    SYMINP    ZMAT    AOBASIS   BASIS     P2S    ABASIS      S 
                                         1400     1410     1200     1210     1080     1600     1650     1300     1700   
                                           T        V       H0       H01     AOSYM     SMH    MOLCAS    ERIS     OPER   

              2       7        0.57       700     1000      520     2100     5300     5450     5400   
                                         GEOM     BASIS   MCVARS     RHF     HESS     NMOD     FREQ   

              4       5        1.12      4100     4000     4200     4300     4400   

 PROGRAMS   *        TOTAL      FREQ      OPTG    HF-SCF       INT
 CPU TIMES  *        18.16      4.27     13.38      0.13      0.26
 REAL TIME  *        19.71 SEC
 DISK USED  *        51.72 MB
 **********************************************************************************************************************************

 Dump information in style MOLDEN to water_dimer_h3.molden                                                           

 Molecular orbitals read from record     2100.2  Type=RHF/CANONICAL  
 Occupation numbers read from record     2100.2  Type=RHF/RHF  
 Orbital energies read from record       2100.2  Type=RHF/CANONICAL  
 Redundancy group numbers read from rec  2100.2  Type=RHF/RHF  

 DUMP ORBITAL  1.1 AS ORBITAL    1  occ=    2.0000  eig=  -20.5725  GROUP=   2
 DUMP ORBITAL  2.1 AS ORBITAL    2  occ=    2.0000  eig=  -20.5082  GROUP=   2
 DUMP ORBITAL  3.1 AS ORBITAL    3  occ=    2.0000  eig=   -1.3786  GROUP=   2
 DUMP ORBITAL  4.1 AS ORBITAL    4  occ=    2.0000  eig=   -1.3175  GROUP=   2
 DUMP ORBITAL  5.1 AS ORBITAL    5  occ=    2.0000  eig=   -0.7471  GROUP=   2
 DUMP ORBITAL  6.1 AS ORBITAL    6  occ=    2.0000  eig=   -0.6906  GROUP=   2
 DUMP ORBITAL  7.1 AS ORBITAL    7  occ=    2.0000  eig=   -0.6048  GROUP=   2
 DUMP ORBITAL  8.1 AS ORBITAL    8  occ=    2.0000  eig=   -0.5466  GROUP=   2
 DUMP ORBITAL  9.1 AS ORBITAL    9  occ=    2.0000  eig=   -0.5247  GROUP=   2
 DUMP ORBITAL 10.1 AS ORBITAL   10  occ=    2.0000  eig=   -0.4706  GROUP=   2

 Total charge:      20.000000
 Frequency information read from record  5400.2

 **********************************************************************************************************************************

 HF/6-311G(D,P)//HF/6-311G(D,P) energy=   -152.102912677648

    OPTG(HF-SCF)          HF-SCF
   -152.10291268   -152.09521052
 **********************************************************************************************************************************
 Molpro calculation terminated
