[Molden Format]
[Molpro variables]
_NUMVAR=  1076.000000000000    
_AVOGAD= 0.6022140760000000E+24
_BOLTZ= 0.1380649000000000E-22
_CLIGHTSI=  299792458.0000000    
_JOULE= 0.4359744722207100E-17
_JPCAL=  4.184000000000000    
_PLANCK= 0.6626070150000000E-33
_BOHR= 0.5291772109030000E-10
_ECHARG= 0.1602176634000000E-18
_ENULL= 0.8854187812800001E-11
_MU= 0.1660539066600000E-26
_EMASS= 0.9109383701500001E-30
_AMU2AU=  1822.888486217313    
_CLIGHT=  29979245800.00000    
_EV= 0.3674932217565494E-01
_KJOULE= 0.3808798847133432E-03
_KJOULE/MOL= 0.3808798847133432E-03
_CM= 0.4556335252912009E-05
_CM-1= 0.4556335252912009E-05
_DEB2SI= 0.3335640951981520E-29
_KCAL= 0.1593601437640628E-02
_KCAL/MOL= 0.1593601437640628E-02
_KELVIN= 0.3166811563455608E-05
_HERTZ= 0.1519829846057038E-15
_HZ= 0.1519829846057038E-15
_TOA= 0.5291772109030000    
_TOANG= 0.5291772109030000    
_TORAD= 0.1745329251994330E-01
_TOCM=  219474.6313631965    
_TODEBYE=  2.541746473194078    
_TOE= 0.4803204712570263E-09
_TOEV=  27.21138624598803    
_TOHERTZ=  6579683920501656.    
_TOHZ=  6579683920501656.    
_TOK=  315775.0248040668    
_TOKCAL=  627.5094740630558    
_TOKELVIN=  315775.0248040668    
_TOKJ=  2625.499639479825    
_TOKJOULE=  2625.499639479825    
_TOKG= 0.1660539066600000E-26
_ANG=  1.889726124625770    
_ANGSTROM=  1.889726124625770    
_RPAREF=  0.000000000000000    
_RPADISS=  0.000000000000000    
_IGNORE_UNDEF=  2.000000000000000    
_STRICTCHECK=  0.000000000000000    
!SEWARD=  0.000000000000000    
!MULTI=  0.000000000000000    
!DFMULTI=  0.000000000000000    
!NUMHESS=  0.000000000000000    
_SEW_ONEEL=  0.000000000000000    
_CPPDONE=FALSE
_DKROLL_DONE=  0.000000000000000    
_FNUC_DONE=  0.000000000000000    
_FOCKDONE=TRUE
_GRADONE=FALSE
_HESSDONE=TRUE
_INTDONE=TRUE
_SCFDONE=TRUE
_MODUL_BLOCK=FALSE
_MODUL_SLATER=TRUE
_MODUL_MRCC=FALSE
_MODUL_NBO6=FALSE
_MODUL_NECI=FALSE
_MODUL_AIMS=TRUE
_MODUL_HDF5=FALSE
_MODUL_GECCO=FALSE
_ISWINDOWS=FALSE
_MRCC_EXEC=
_FITC_AO_SAVED=FALSE
_FITC_MO_SAVED=FALSE
_LSTYP=SEWARD
_INTYP=INTS
_GEOMTYP=XYZ
_GRADTYP=ALASKA
_DIRECT=FALSE
_DKHO= -1.000000000000000    
_FNUC=  0.000000000000000    
_SYNCM=  0.000000000000000    
_BASIS=6-311G(D,P)
_ZCENTRE=MASS
_ZORIENT=  1.000000000000000    
_NELEC=  20.00000000000000    
!SPIN=  0.000000000000000    
_OPTCONV= 0.3299185369155958E-01
_QSDSTEP=  0.000000000000000    
_QSDIRC=  0.000000000000000    
_PROGRAM=FREQ
_CPUSTEP=  4.279999999999998    
_SYSSTEP= 0.1400000000000001    
_WALLSTEP=  4.420000000000000    
!DFSCF=  0.000000000000000    
!SCSGRD=  0.000000000000000    
_NCEN=  6.000000000000000    
_CPUTOT=  18.16000000000000    
_DFTEXFAC=  1.000000000000000    
_DMX=-0.1036563023510285    
_DMY=-0.1569346997064734E-03
_DMZ=  1.264535549238484    
_DMX_SCF=-0.1036563023510285    
_DMY_SCF=-0.1569346997064734E-03
_DMZ_SCF=  1.264535549238484    
_FREQUENCIES= 0.3981582798536884E-04
_HOMO=  10.10000000000000    
_EHOMO=-0.4706405848504653    
_LUMO=  11.10000000000000    
_ELUMO= 0.1334554012242476    
_ENERGY= -152.1029126776480    
_ENERGY_METHOD=HF
_ENERGY_BASIS=6-311G(D,P)
_GEOMETRY_METHOD=HF
_GEOMETRY_BASIS=6-311G(D,P)
_ENUC=  36.51034567511252    
_GRADENERG= -152.1029119736585    
_GRADEXFAC=  9999.000000000000    
_GRADMETHOD=  1.000000000000000    
_NMRMETHOD=  0.000000000000000    
_NMRMAGNET=  0.000000000000000    
_VIRIAL=-0.2556615058383358E-03
!GRID_FREEZE= -1.000000000000000    
!NEESE_INDEX=  0.000000000000000    
_ITERATIONS=  13.00000000000000    
_LASTNELEC=  20.00000000000000    
_LASTSPIN=  0.000000000000000    
_LASTSYM=  1.000000000000000    
_MPP_PROG=  0.000000000000000    
_MSNSTATES=  0.000000000000000    
_RS2PHASE=  0.000000000000000    
_NPROC_MPP=  1.000000000000000    
_NPROC_SMP=  6.000000000000000    
_NUMSTEP=  0.000000000000000    
_OPTCONVMX= 0.2990375281509829E-01
_OPTCONVRMS= 0.9523927804943334E-02
_OPTGRAD= 0.2013321724797935E-03
_OPTGRADMX= 0.1237096095511655E-03
_OPTGRADRMS= 0.5811959198887047E-04
!GMAXLAST= 0.1237096095511655E-03
!DMAXLAST= 0.2990375281509829E-01
!DELAST= 0.1660674001868756E-05
_OPTSTEP=  22.00000000000000    
_ORBITAL=  2100.200000000000    
_PI=  3.141592653589793    
_SEIG_MIN= 0.1412307767306227E-01
_SEWPROP=TRUE
_STATUS=  1.000000000000000    
_SYSTOT=  1.520000000000000    
_VERSION=  2024001.000000000    
_WALLTOT=  19.71000000000000    
_ZPE= 0.4627666130117229E-01
_DATE=18-Sep-24
_LASTORB=0
_OUTPUT=/home/lme/Theoretische_Chemie/Nomodeco/pymolpro_integration/water_dimer/water_dimer_isotopes/Water_Dimer_H3.molpro/run/Water_Dimer_H3_1.molpro/Water_Dimer_H3_1.out
_PGROUP=C1
_TIME=11:36:54
_LIBMOL=/usr/local/molpro/molpro_2024.1.0_sockets/lib/
_VIGRDC=  0.000000000000000    
!VIBCNT=  0.000000000000000    
!SURFREC=  0.000000000000000    
!XSURFREC=  0.000000000000000    
!XPOLYREC=  0.000000000000000    
!ROTREC=  0.000000000000000    
!POLYREC=  0.000000000000000    
!DIPREC=  0.000000000000000    
!DIP4DREC=  0.000000000000000    
!DIPROT=  0.000000000000000    
!DIP4DROT=  0.000000000000000    
!PTREC=  0.000000000000000    
!PT4DREC=  0.000000000000000    
!VSCFREC=  0.000000000000000    
!VCIREC=  0.000000000000000    
!PVCIREC=  0.000000000000000    
!VMP2REC=  0.000000000000000    
!VMCSCFREC=  0.000000000000000    
!VMRCIREC=  0.000000000000000    
!VIBSTATEREC=  0.000000000000000    
!VIBSTATECNT=  0.000000000000000    
!VIBINFO=  0.000000000000000    
!GAREC=  0.000000000000000    
!SCFORB=  21002.00000000000    
!DEFCORE=  2.000000000000000    
!SCORE=  0.000000000000000    
!NEWMOL=  0.000000000000000    
!NEWSYM=  0.000000000000000    
_SLFILES=slscratch
_NGSSTO=  9.000000000000000    
_SIN=SIN
_COS=COS
_TAN=TAN
_ACOS=ACOS
_ASIN=ASIN
_ATAN=ATAN
_COSH=COSH
_SINH=SINH
_TANH=TANH
_ABS=ABS
_MOD=MOD
_ERF=ERF
_REFC=REFC
_ERFC=ERFC
_HYPOT=HYPOT
_J0=J0
_J1=J1
_JN=JN
_GAMMA=GAMMA
_LGAMMA=LGAMMA
_Y0=Y0
_Y1=Y1
_YN=YN
_EXP=EXP
_LOG=LOG
_LOG10=LOG10
_SQRT=SQRT
_INT=INT
_NINT=NINT
_MAX=MAX
_MIN=MIN
_COSMO=  0.000000000000000    
_COSMOIT=  0.000000000000000    
_COSMOES=  0.000000000000000    
_COSMOEDS=  0.000000000000000    
_COSMOEC=  0.000000000000000    
_COSMOEDCORR=  0.000000000000000    
_FEPSI=  1.000000000000000    
_SL_IsMM=  0.000000000000000    
_SL_NSYM=  1.000000000000000    
_SL_System_BitSw=  0.000000000000000    
_SL_Unique_atoms=  0.000000000000000    
_SL_GRAD=  0.000000000000000    
_SL_MAXUPD_Hess=  5.000000000000000    
_SL_N_PRINT_COD=  5.000000000000000    
_SL_PRINT_CODES=  0.000000000000000    
_SL_BasType=  0.000000000000000    
_SL_Energy_Pred=  0.000000000000000    
_SL_New_Coords=  0.000000000000000    
_SL_Total_Nuclea=  0.000000000000000    
_SL_Highest_Mltp=  0.000000000000000    
_SL_Ref_Geom=  0.000000000000000    
_SL_Symmetry_ope=  1.000000000000000    
_SL_agrad=  0.000000000000000    
_SL_GrdMax=  0.000000000000000    
_SL_GrdNorm=  0.000000000000000    
_SL_GrdRMS=  0.000000000000000    
_SL_Hss_Q=  0.000000000000000    
_SL_Hss_X=  0.000000000000000    
_SL_BMxOld=  0.000000000000000    
_SL_KtB=  0.000000000000000    
_SL_TROld=  0.000000000000000    
_SL_No_of_Intern=  0.000000000000000    
_SL_Hess=  0.000000000000000    
_SL_K=  0.000000000000000    
!LATTICE= -1.000000000000000    
!NEWLATTICE=  0.000000000000000    
!LATGRAD_VAR=FALSE
!SEW_LATTICE=  1.000000000000000    
!AIC_ONEEL=  0.000000000000000    
!LOCAL=  0.000000000000000    
!SAVEDOM= -1.000000000000000    
!RESTDOM= -1.000000000000000    
!SAVEDOM_HF= -1.000000000000000    
!RESTDOM_HF= -1.000000000000000    
!HESSREC=  5300.200000000000    
!FREQREC=  5400.200000000000    
!NMODREC=  5450.200000000000    
!GTASKS=  0.000000000000000    
!HTASKS=  0.000000000000000    
!SAVEDOM_EOM= -1.000000000000000    
!RESTDOM_EOM= -1.000000000000000    
!GRADSTATE= -1.000000000000000    
!DEBUG=  0.000000000000000    
!CFIT_CPHF=  0.000000000000000    
!RDOMAUX_CPHF=  0.000000000000000    
!THRAO_CPHF= 0.1000000000000000E-11
!THRMO_CPHF= 0.1000000000000000E-11
!THROV_CPHF= 0.1000000000000000E-13
!THRSW_CPHF= 0.1000000000000000E-11
!THRPROD_CPHF= 0.1000000000000000E-11
!THRAOPR_CPHF= 0.1000000000000000E-11
!CFIT_SCFGRD=  0.000000000000000    
!RDOMAUX_SCFGRD=  0.000000000000000    
!THRAO_SCFGRD= 0.1000000000000000E-11
!THRMO_SCFGRD= 0.1000000000000000E-11
!THROV_SCFGRD= 0.1000000000000000E-13
!THRSW_SCFGRD= 0.1000000000000000E-11
!THRPROD_SCFGRD= 0.1000000000000000E-11
!THRAOPR_SCFGRD= 0.1000000000000000E-11
!LOCFIT_SCF=  0.000000000000000    
!LOCFIT_MP2=  0.000000000000000    
_RIDOM=  0.000000000000000    
!CC2_METHOD=  0.000000000000000    
_BASIS2006=FALSE
_SVDDEL= -1.000000000000000    
_SVDDELA= -1.000000000000000    
_SVDDELP= -1.000000000000000    
_SVDDELF= -1.000000000000000    
_SVDDELS= -1.000000000000000    
_SVDDEL_ABS= -1.000000000000000    
_SVDDELA_ABS= -1.000000000000000    
_SVDDELP_ABS= -1.000000000000000    
_SVDDELF_ABS= -1.000000000000000    
_SVDDELS_ABS= -1.000000000000000    
_MAXBASIS=  0.000000000000000    
!OPT_CONICAL=  0.000000000000000    
!CLEARSP_JGRID=  0.000000000000000    
_GRDHYBR=  0.000000000000000    
_STATEGRAD=  1.000000000000000    
_4EXT_NDISKS=  1.000000000000000    
!EMBEDFLAG=  1.000000000000000    
!EMBED=FALSE
!EMBED_F12=FALSE
!EMBEDNUC=  0.000000000000000    
_EMBEDENERGY=  0.000000000000000    
!EMBED_DFC=FALSE
!NUM_VOIDS=  0.000000000000000    
_IBODY=  0.000000000000000    
_EMBE_CORR=  0.000000000000000    
!EMBED_PROJ=FALSE
!EMB_PROJ_ZMU=  1000000.000000000    
!CORRECTION_HF=  0.000000000000000    
!EMBED_AORB=  0.000000000000000    
!EMBED_NACORR=  0.000000000000000    
!EMBED_MP2=FALSE
!EMBED_TRUNC_PERTURBATION=FALSE
!EMBED_FROZEN=  0.000000000000000    
!EMBED_ACTIVE=  0.000000000000000    
_CHANGE_BASIS=FALSE
_RESTORE_BASIS=FALSE
_FIX_EMBED_GUESS=FALSE
_EMBED_SCF=FALSE
_NEOBAS=FALSE
_NEOOVE=FALSE
_PRINEO=FALSE
_HUZINAGA_T=FALSE
_HUZINAGA_F=FALSE
_HUZINAGA=FALSE
_HUZINAGA_CORRECT=FALSE
!FASTLATGRAD=  1.000000000000000    
!FASTVLAMBDA= -1.000000000000000    
!IFORCE= -1.000000000000000    
!USESYM= -1.000000000000000    
_SINDEX=  0.000000000000000    
_AVDOM_OSV=  0.000000000000000    
_AVDOM_PNO=  0.000000000000000    
_AVDOM_PNOCC=  0.000000000000000    
_AVDOM_TNO=  0.000000000000000    
_AVDOM_TNOIT=  0.000000000000000    
_AVDOM_PAO=  0.000000000000000    
_AVDOM_LMO=  0.000000000000000    
_CC2OSV_FLAG=  0.000000000000000    
_EOMCCSD_CONV=FALSE
_TMADC2_FLAG=FALSE
_PROPADC2_FLAG=FALSE
_LEN_VirQ=  0.000000000000000    
_GRDCC2LR_FLAG=FALSE
_GRDADC2_FLAG=FALSE
_RO_VGLOBAL=  0.000000000000000    
_OPT=FALSE
_FREQ=FALSE
_HESS=FALSE
_CMRCC_callName=EMPTY
_CMRCC_callCount=  0.000000000000000    
_GECCO_CIROOT=  1.000000000000000    
_SYM_CATION=  1.000000000000000    
_MON_A=FALSE
_MON_B=FALSE
_MAXGEOM=  100.0000000000000    
!MAXGEOM=  100.0000000000000    
_NCORE=  0.000000000000000    
_NLARGECORE=  0.000000000000000    
GX1= 0.1115051856575200    
GY1= 0.7364782276251881E-03
GZ1= -1.477961203915643    
GX2= 0.5263295648403749E-01
GY2=-0.5012854587182873E-02
GZ2=-0.5347384918667835    
GX3=-0.7786364609551847    
GY3=-0.3750736522358627E-02
GZ3= -1.781186620431517    
GX4=-0.5909227330017015E-01
GY4=-0.4911079856050365E-03
GZ4=  1.496277008344841    
GX5= 0.3288174913807129    
GY5= 0.7571576141559755    
GZ5=  1.899227239120348    
GX6= 0.3424008551826122    
GY6=-0.7485451338908226    
GZ6=  1.903828783715110    
O1X1= 0.2107142623682622    
O1Y1= 0.1391742146961403E-02
O1Z1= -2.792941898222745    
H2X2= 0.9946187288417696E-01
H2Y2=-0.9472922272349606E-02
H2Z2= -1.010509297923646    
H3X3= -1.471409661853166    
H3Y3=-0.7087864792889108E-02
H3Z3= -3.365954889463324    
O4X4=-0.1116682126188574    
O4Y4=-0.9280595904101741E-03
O4Z4=  2.827553752346137    
H5X5= 0.6213750036960423    
H5Y5=  1.430820523929866    
H5Z5=  3.589019330366596    
H6X6= 0.6470438411327872    
H6Y6= -1.414545294974982    
H6Z6=  3.597714989400949    
[Atoms] Angs
O     1    8         0.1115051857        0.0007364782       -1.4779612039
H     2    1         0.0526329565       -0.0050128546       -0.5347384919
H     3    1        -0.7786364610       -0.0037507365       -1.7811866204
O     4    8        -0.0590922733       -0.0004911080        1.4962770083
H     5    1         0.3288174914        0.7571576142        1.8992272391
H     6    1         0.3424008552       -0.7485451339        1.9038287837
[GTO]
   1 0
 s    6  1.00
  0.8588500000D+04  0.1895150083D-02
  0.1297230000D+04  0.1438590063D-01
  0.2992960000D+03  0.7073200310D-01
  0.8737710000D+02  0.2400010105D+00
  0.2567890000D+02  0.5947970261D+00
  0.3740040000D+01  0.2808020123D+00
 s    3  1.00
  0.4211750000D+02  0.1138890124D+00
  0.9628370000D+01  0.9208111006D+00
  0.2853320000D+01 -0.3274470358D-02
 s    1  1.00
  0.9056610000D+00  0.1000000000D+01
 s    1  1.00
  0.2556110000D+00  0.1000000000D+01
 p    3  1.00
  0.4211750000D+02  0.3651139738D-01
  0.9628370000D+01  0.2371529830D+00
  0.2853320000D+01  0.8197019412D+00
 p    1  1.00
  0.9056610000D+00  0.1000000000D+01
 p    1  1.00
  0.2556110000D+00  0.1000000000D+01
 d    1  1.00
  0.1292000000D+01  0.1000000000D+01
  
   2 0
 s    3  1.00
  0.3386500000D+02  0.2549381454D-01
  0.5094790000D+01  0.1903731086D+00
  0.1158790000D+01  0.8521614860D+00
 s    1  1.00
  0.3258400000D+00  0.1000000000D+01
 s    1  1.00
  0.1027410000D+00  0.1000000000D+01
 p    1  1.00
  0.7500000000D+00  0.1000000000D+01
  
   3 0
 s    3  1.00
  0.3386500000D+02  0.2549381454D-01
  0.5094790000D+01  0.1903731086D+00
  0.1158790000D+01  0.8521614860D+00
 s    1  1.00
  0.3258400000D+00  0.1000000000D+01
 s    1  1.00
  0.1027410000D+00  0.1000000000D+01
 p    1  1.00
  0.7500000000D+00  0.1000000000D+01
  
   4 0
 s    6  1.00
  0.8588500000D+04  0.1895150083D-02
  0.1297230000D+04  0.1438590063D-01
  0.2992960000D+03  0.7073200310D-01
  0.8737710000D+02  0.2400010105D+00
  0.2567890000D+02  0.5947970261D+00
  0.3740040000D+01  0.2808020123D+00
 s    3  1.00
  0.4211750000D+02  0.1138890124D+00
  0.9628370000D+01  0.9208111006D+00
  0.2853320000D+01 -0.3274470358D-02
 s    1  1.00
  0.9056610000D+00  0.1000000000D+01
 s    1  1.00
  0.2556110000D+00  0.1000000000D+01
 p    3  1.00
  0.4211750000D+02  0.3651139738D-01
  0.9628370000D+01  0.2371529830D+00
  0.2853320000D+01  0.8197019412D+00
 p    1  1.00
  0.9056610000D+00  0.1000000000D+01
 p    1  1.00
  0.2556110000D+00  0.1000000000D+01
 d    1  1.00
  0.1292000000D+01  0.1000000000D+01
  
   5 0
 s    3  1.00
  0.3386500000D+02  0.2549381454D-01
  0.5094790000D+01  0.1903731086D+00
  0.1158790000D+01  0.8521614860D+00
 s    1  1.00
  0.3258400000D+00  0.1000000000D+01
 s    1  1.00
  0.1027410000D+00  0.1000000000D+01
 p    1  1.00
  0.7500000000D+00  0.1000000000D+01
  
   6 0
 s    3  1.00
  0.3386500000D+02  0.2549381454D-01
  0.5094790000D+01  0.1903731086D+00
  0.1158790000D+01  0.8521614860D+00
 s    1  1.00
  0.3258400000D+00  0.1000000000D+01
 s    1  1.00
  0.1027410000D+00  0.1000000000D+01
 p    1  1.00
  0.7500000000D+00  0.1000000000D+01


[MO]
 Sym=      1.1
 Ene=     -20.5725
 Spin= Alpha
 Occup=    2.000000
1 -0.000020030972719
2 -0.000024475438350
3 0.000063427023682
4 -0.000234453557666
5 -0.000006031761809
6 0.000000096349885
7 -0.000010153083396
8 0.000024089114771
9 -0.000000317741727
10 0.000037566509349
11 0.000003005200494
12 0.000000889999630
13 -0.000134687116955
14 -0.000006451962405
15 0.000007110081484
16 -0.000000658119079
17 -0.000000094023533
18 -0.000001852973357
19 -0.000000123874694
20 -0.000030617169697
21 0.000157613992426
22 0.000198122614249
23 -0.000004454863035
24 0.000000425125741
25 0.000030759972655
26 0.000003369087615
27 0.000051910854467
28 -0.000076621877568
29 0.000017065151772
30 0.000000019090454
31 0.000014221112334
32 0.55142844832812
33 0.47167028125464
34 0.005610666916896
35 -0.000540718960412
36 0.001227128879221
37 0.000014439421214
38 0.001173866329769
39 -0.000425903765765
40 -0.000005086889514
41 -0.000452754066572
42 0.000049954121866
43 0.000001057945001
44 0.000163426152039
45 0.000054143574753
46 -0.000094590126483
47 0.000040446551730
48 0.000001379035384
49 -0.000072227836958
50 -0.000000142189128
51 0.000194852446407
52 0.000123913601940
53 0.000055435095026
54 -0.000001984959366
55 -0.000068953757035
56 -0.000026912420978
57 0.000194794653923
58 0.000124446552123
59 0.000055036934870
60 -0.000003310483293
61 0.000068827693426
62 -0.000027416118303
 Sym=      2.1
 Ene=     -20.5082
 Spin= Alpha
 Occup=    2.000000
1 0.55142512410622
2 0.47167109112772
3 0.005620088658601
4 -0.000574338145390
5 -0.001457923586228
6 -0.000015637215221
7 0.000897941252954
8 0.000513313645366
9 0.000005272184882
10 -0.000280767913731
11 -0.000078633191176
12 -0.000000385156834
13 -0.000027714440625
14 -0.000053249035015
15 0.000109235720098
16 -0.000055986685082
17 -0.000001033014517
18 -0.000048429115564
19 0.000000798494774
20 0.000196435099313
21 0.000116869510724
22 0.000236689377149
23 -0.000028363437956
24 0.000000271337736
25 -0.000059510339945
26 0.000207664590943
27 0.000111890390363
28 0.000042644747199
29 0.000055703614712
30 0.000000048231039
31 0.000056552642660
32 0.000020604713875
33 0.000015692369355
34 0.000018031797413
35 -0.000062911190472
36 0.000002383919615
37 0.000000050900489
38 0.000010640727507
39 -0.000009707442608
40 -0.000000147694348
41 -0.000032142007194
42 0.000002923921431
43 0.000000520597260
44 0.000087854451297
45 0.000002770124747
46 -0.000002097942425
47 -0.000000672182322
48 0.000000089072406
49 0.000000834838143
50 0.000000048915398
51 -0.000003879424050
52 0.000022713097027
53 -0.000035390764929
54 -0.000000352336714
55 -0.000000813944566
56 -0.000011717843318
57 -0.000004015145250
58 0.000023509848501
59 -0.000035990231314
60 -0.000000461885116
61 0.000000808580124
62 -0.000011824461447
 Sym=      3.1
 Ene=      -1.3786
 Spin= Alpha
 Occup=    2.000000
1 -0.006522047883977
2 -0.010840735792710
3 0.030077411848487
4 0.022613851482445
5 -0.001618025776340
6 -0.000021206018315
7 0.002431403710745
8 -0.003001576054550
9 -0.000032402312201
10 0.003009844308918
11 -0.000962069491287
12 -0.000012925240810
13 0.003251606534341
14 0.000151752664458
15 -0.000602495405595
16 0.000450742741137
17 0.000005482770045
18 0.000027594941295
19 -0.000004102988358
20 0.008543380654814
21 0.006507228990218
22 -0.001460942722156
23 -0.000006878618186
24 0.000006268467474
25 -0.001710780679217
26 0.005215541536633
27 0.003050079138159
28 0.001621300175508
29 0.001178135075080
30 0.000005012958743
31 0.000443278045459
32 -0.11342293521898
33 -0.18947690909203
34 0.53804565520950
35 0.37615599014294
36 0.026196106952759
37 0.000311946878562
38 0.025540385328653
39 0.043776838892021
40 0.000521130802368
41 0.042665882639074
42 0.014970225749823
43 0.000144945991317
44 0.009736292329038
45 -0.003233399439757
46 0.005668745215228
47 -0.002435345775471
48 -0.000074991542983
49 0.006181069237032
50 0.000027513218491
51 0.095534666688357
52 0.078529705074386
53 -0.002866181786445
54 -0.009839082953463
55 -0.023857554850974
56 -0.009732998508340
57 0.095539750835035
58 0.078515526689866
59 -0.002851922496073
60 -0.010263944225293
61 0.023614335903985
62 -0.009878478237992
 Sym=      4.1
 Ene=      -1.3175
 Spin= Alpha
 Occup=    2.000000
1 -0.11316134118548
2 -0.18896819245857
3 0.53522292716774
4 0.37947031973914
5 -0.031465872808373
6 -0.000336289916312
7 0.020629697501536
8 -0.052720850266155
9 -0.000556494740451
10 0.033933361291740
11 -0.016365168902715
12 -0.000199461816753
13 0.013746781316455
14 0.003742794051839
15 -0.008333980723606
16 0.004591186671767
17 0.000088809248170
18 0.001590586236349
19 -0.000073174735477
20 0.094052287026560
21 0.075048600478550
22 -0.008495493060750
23 -0.000843927299493
24 0.000135943042919
25 -0.027890355532528
26 0.097083823713617
27 0.081135971348020
28 0.000491475891727
29 0.024964512907043
30 0.000110324957937
31 0.011291593748016
32 0.007343421247523
33 0.012305146767235
34 -0.035417439589596
35 -0.022595036298607
36 -0.001900064752557
37 -0.000026599635850
38 -0.004102934053343
39 -0.002955716365279
40 -0.000037221333012
41 -0.004943856095162
42 -0.000946843674871
43 -0.000032717243411
44 -0.006025262693624
45 0.000202263682165
46 -0.000354947785526
47 0.000152684103361
48 0.000003476750505
49 -0.000517432725385
50 -0.000004868709077
51 -0.006783004764219
52 -0.006946806423313
53 0.002121905486825
54 0.000699605001810
55 0.001789620791017
56 0.000860792580646
57 -0.006782912040455
58 -0.006975233924112
59 0.002128231858841
60 0.000734907238534
61 -0.001774704477605
62 0.000877224693410
 Sym=      5.1
 Ene=      -0.7471
 Spin= Alpha
 Occup=    2.000000
1 0.000005967858289
2 0.000010551247436
3 -0.000041970968145
4 0.000043001456007
5 0.000004417035268
6 0.001638699605175
7 0.000046533428410
8 0.000005396661141
9 0.002034100319346
10 0.000064174371792
11 -0.000019212601411
12 0.003138408588377
13 0.000096002487133
14 -0.000002813856559
15 -0.000003951805039
16 0.000006765661598
17 -0.000092879862750
18 -0.000003496849073
19 0.000104874041203
20 0.000022564748867
21 -0.000003332294802
22 -0.000059700692664
23 -0.000007930549033
24 0.001064767288469
25 0.000005760617635
26 -0.000024989339419
27 -0.000066359181991
28 0.000038725247225
29 -0.000010954750963
30 0.000047623617546
31 -0.000003518243756
32 -0.000003444253170
33 -0.000005901237228
34 0.000018523337388
35 0.000039797773279
36 -0.002060723995517
37 0.22883847510070
38 -0.000697621289595
39 -0.003164298312975
40 0.35158826672092
41 -0.001068596259026
42 -0.001958704427131
43 0.21823261708998
44 -0.000662116274069
45 -0.000320418912797
46 0.000427042544201
47 -0.000106623631405
48 0.020563975985671
49 -0.000244090318836
50 0.020178412514953
51 0.15074685393139
52 0.20548265014390
53 0.049004958379703
54 -0.017291821944730
55 -0.019129227645585
56 -0.018171876599548
57 -0.15074280444287
58 -0.20552815288904
59 -0.049007135301006
60 0.017635361641171
61 -0.018700979454416
62 0.018296919108786
 Sym=      6.1
 Ene=      -0.6906
 Spin= Alpha
 Occup=    2.000000
1 0.000595605631985
2 0.001001060647748
3 -0.002724879620351
4 -0.001217031866108
5 0.11806230076394
6 -0.000201764808990
7 0.18607012810320
8 0.18133992068987
9 -0.000305127434695
10 0.28489614292215
11 0.10909202618311
12 -0.000208836877012
13 0.17862939996459
14 -0.022147154928181
15 -0.000021251903371
16 0.022168406831552
17 -0.000117740079583
18 -0.011101196304562
19 -0.000221495312128
20 0.14721816219293
21 0.19637076601703
22 0.062273568591890
23 0.010286114632112
24 0.000226681315058
25 -0.030363337305191
26 -0.14529900232401
27 -0.20398107010218
28 -0.057779260287730
29 -0.030389528887145
30 -0.000207304176381
31 -0.000136092779233
32 -0.004067310774142
33 -0.006951971870995
34 0.021327346892235
35 0.044351524842283
36 -0.013732884030904
37 -0.000331113398092
38 -0.054481735665275
39 -0.020530631346201
40 -0.000504317869720
41 -0.083718581531177
42 -0.011097954746242
43 -0.000359649447435
44 -0.068735328958041
45 0.000557596578674
46 -0.000115302401227
47 -0.000442294177447
48 -0.000007437709267
49 -0.003400810827906
50 -0.000036661339214
51 -0.018762152062515
52 -0.029341247843654
53 -0.004983235631364
54 0.000998552163503
55 0.006285266085932
56 -0.002919409583467
57 -0.018707304985207
58 -0.029284751490990
59 -0.004977951503774
60 0.001107320860568
61 -0.006279809694820
62 -0.002882186575363
 Sym=      7.1
 Ene=      -0.6048
 Spin= Alpha
 Occup=    2.000000
1 -0.011237946097865
2 -0.018956470031432
3 0.054357051932443
4 0.10336893279461
5 0.069603659530980
6 0.000262961825899
7 0.017146222723977
8 0.10247740683462
9 0.000384737734554
10 0.028286084339425
11 0.087403963628374
12 0.000276974209930
13 0.015592253447104
14 -0.007127702116393
15 0.002488239535843
16 0.004639462580550
17 -0.000068257075676
18 -0.000328200828301
19 -0.000026315232215
20 0.009617888888976
21 0.009205828085731
22 -0.036119382485104
23 0.007740798691617
24 0.000046842646409
25 -0.004678045336414
26 -0.049509004105768
27 -0.071420120400129
28 -0.015360791597252
29 -0.008287861114004
30 -0.000036246098513
31 -0.005116535249123
32 0.034910773091330
33 0.059345292810571
34 -0.17913639289987
35 -0.30448684089802
36 0.16866094633511
37 0.002055384462179
38 0.17634609036478
39 0.25011784796473
40 0.003056876680513
41 0.26457593998276
42 0.22731863913509
43 0.002816940712175
44 0.23581283617456
45 0.002090212777659
46 -0.002920140851156
47 0.000829928073497
48 0.000100099039451
49 0.015735240486528
50 0.000152929185125
51 0.083719259558375
52 0.12816694412953
53 0.031384671048007
54 0.005994740523686
55 -0.027012300063293
56 0.006189513484794
57 0.083732409469982
58 0.12826822857778
59 0.031371135721742
60 0.005498778852940
61 0.027158849350104
62 0.006015685827695
 Sym=      8.1
 Ene=      -0.5466
 Spin= Alpha
 Occup=    2.000000
1 -0.032340252270019
2 -0.055021804780843
3 0.16684825943538
4 0.27512482288333
5 0.18270567450165
6 0.001831145849278
7 -0.11304092994233
8 0.27121141107548
9 0.002702133102007
10 -0.16566705145654
11 0.24194414238633
12 0.002469873353794
13 -0.16207991818830
14 -0.009591225787564
15 0.010752562090000
16 -0.001161336302435
17 -0.000210961403433
18 0.008718661861355
19 0.000133070374441
20 -0.069133554528240
21 -0.10322288228682
22 -0.011347361619881
23 0.018379675819550
24 0.000052299512196
25 0.015163131390233
26 -0.079517976528469
27 -0.13428757163086
28 -0.026860024098930
29 -0.008345503092563
30 0.000071961134813
31 -0.024035510850886
32 -0.009671549791229
33 -0.016514585506521
34 0.051341012845018
35 0.076382860630615
36 -0.14012088902972
37 -0.001073713973725
38 0.060032176220353
39 -0.21058851004314
40 -0.001613397848254
41 0.090101196519982
42 -0.21074519242075
43 -0.001562470712366
44 0.10749641843442
45 -0.007005560824130
46 0.001402252930424
47 0.005603307893706
48 -0.000094552300563
49 -0.003231145632338
50 -0.000012040191744
51 -0.017291145230216
52 -0.030233042201693
53 -0.007158370603959
54 -0.012513493405309
55 0.006201036293259
56 0.008135132270215
57 -0.017309552833574
58 -0.030219210134565
59 -0.007246762797502
60 -0.012403180293404
61 -0.006377107316805
62 0.008174500311018
 Sym=      9.1
 Ene=      -0.5247
 Spin= Alpha
 Occup=    2.000000
1 0.015212917199417
2 0.025926766681245
3 -0.079956355016738
4 -0.13112072898586
5 -0.091080472388363
6 -0.001575581152763
7 0.10085225516680
8 -0.13445265871123
9 -0.002325004000576
10 0.15062733730920
11 -0.12773820680671
12 -0.002305376419919
13 0.13517179521696
14 0.002594007674319
15 -0.006411126379493
16 0.003817118705173
17 0.000130630912027
18 -0.006891610038036
19 -0.000135983007260
20 0.054141663768418
21 0.094414109280978
22 -0.033185437532040
23 -0.011471520086827
24 -0.000050307899347
25 -0.015516275001693
26 0.026994497502399
27 0.044316710607697
28 0.019886679963276
29 0.000306551462037
30 -0.000120002151973
31 0.016113116563241
32 0.003414903009745
33 0.005782096859456
34 -0.015776622771087
35 -0.040931694743202
36 -0.16654530474875
37 -0.000930946452890
38 0.19001829350512
39 -0.25003347404608
40 -0.001398728146509
41 0.28611868507737
42 -0.27333586415401
43 -0.001553873541155
44 0.29343156165903
45 -0.012065112389301
46 -0.000164808090987
47 0.012229920480288
48 -0.000119102987959
49 0.001488603494350
50 0.000052431361672
51 0.007376350998964
52 0.015742174996233
53 0.009789967425990
54 -0.018663062537163
55 -0.003940209872954
56 0.018716155256896
57 0.007397323063871
58 0.015762081389949
59 0.009834864299166
60 -0.018738618581979
61 0.003719039934307
62 0.018696172447089
 Sym=     10.1
 Ene=      -0.4706
 Spin= Alpha
 Occup=    2.000000
1 0.000000731828659
2 0.000002616594452
3 -0.000040219295100
4 0.000226443264209
5 -0.002067472865055
6 0.29035632411388
7 0.001757095509819
8 -0.003106146397424
9 0.43374744537493
10 0.002614464427950
11 -0.003321525161794
12 0.47063252643849
13 0.002942425861215
14 0.000167823914431
15 -0.000268716501223
16 0.000100892586791
17 -0.013928300903974
18 -0.000148149763331
19 0.009090352716695
20 0.000036914305083
21 0.000027117076862
22 -0.000598168639604
23 -0.000216265374101
24 0.029601571998071
25 0.000172239128133
26 0.000004428160159
27 -0.000026494126478
28 0.000190662647656
29 -0.000228239302637
30 0.031374002651607
31 0.000184353030245
32 0.000036545641615
33 0.000063293990928
34 -0.000214921372182
35 -0.000174726876146
36 -0.000172266659707
37 -0.002859844514026
38 0.000398397105323
39 -0.000256730954870
40 -0.004137162711739
41 0.000657022651509
42 -0.000374883966386
43 0.008082355946429
44 0.000407454578369
45 -0.000030396258064
46 0.000004157959944
47 0.000026238298120
48 0.000354420026535
49 0.000008686687590
50 -0.000000744137912
51 -0.000865943383244
52 -0.017499353752193
53 0.017213537118994
54 0.001400761757818
55 0.000897304696561
56 0.001197531879759
57 0.000982560874274
58 0.017421089354445
59 -0.016732965900223
60 -0.001479790055153
61 0.000882402784740
62 -0.001089600753697
 Sym=     11.1
 Ene=       0.1335
 Spin= Alpha
 Occup=    0.000000
1 0.011626568066814
2 0.019541337073238
3 -0.051800551561250
4 -0.17043777317417
5 0.019049767025721
6 0.000130787932018
7 -0.021148973213936
8 0.023517500906703
9 0.000217206633279
10 -0.038844720665011
11 0.054822714740711
12 0.000142660606147
13 0.005549182741021
14 -0.001183414276332
15 -0.000132714668476
16 0.001316128944808
17 -0.000011132948295
18 0.001494838121260
19 0.000021596533323
20 0.010480364201144
21 -0.058144106050965
22 0.069002431030161
23 0.001477444626192
24 -0.000112619211048
25 0.009314493898402
26 0.012801666833359
27 -0.045360426584782
28 0.33282403907850
29 -0.002051139990467
30 0.000013640216874
31 -0.007203386310275
32 0.034162759475899
33 0.056164972944100
34 -0.11536380791071
35 -0.82003698314966
36 -0.046288137424668
37 -0.000469156658354
38 -0.041203189497099
39 -0.073371833753125
40 -0.000772033789303
41 -0.062852631712872
42 -0.13309642102251
43 -0.001434136416468
44 -0.12960244153720
45 0.000104142793792
46 -0.000969469022966
47 0.000865326229174
48 -0.000006094386229
49 -0.004618795751209
50 -0.000039486247305
51 0.034360748484064
52 -0.049514589281018
53 0.78793725262796