[Molden Format]
[Molpro variables]
_NUMVAR=  1070.000000000000    
_AVOGAD= 0.6022140760000000E+24
_BOLTZ= 0.1380649000000000E-22
_CLIGHTSI=  299792458.0000000    
_JOULE= 0.4359744722207100E-17
_JPCAL=  4.184000000000000    
_PLANCK= 0.6626070150000000E-33
_BOHR= 0.5291772109030000E-10
_ECHARG= 0.1602176634000000E-18
_ENULL= 0.8854187812800001E-11
_MU= 0.1660539066600000E-26
_EMASS= 0.9109383701500001E-30
_AMU2AU=  1822.888486217313    
_CLIGHT=  29979245800.00000    
_EV= 0.3674932217565494E-01
_KJOULE= 0.3808798847133432E-03
_KJOULE/MOL= 0.3808798847133432E-03
_CM= 0.4556335252912009E-05
_CM-1= 0.4556335252912009E-05
_DEB2SI= 0.3335640951981520E-29
_KCAL= 0.1593601437640628E-02
_KCAL/MOL= 0.1593601437640628E-02
_KELVIN= 0.3166811563455608E-05
_HERTZ= 0.1519829846057038E-15
_HZ= 0.1519829846057038E-15
_TOA= 0.5291772109030000    
_TOANG= 0.5291772109030000    
_TORAD= 0.1745329251994330E-01
_TOCM=  219474.6313631965    
_TODEBYE=  2.541746473194078    
_TOE= 0.4803204712570263E-09
_TOEV=  27.21138624598803    
_TOHERTZ=  6579683920501656.    
_TOHZ=  6579683920501656.    
_TOK=  315775.0248040668    
_TOKCAL=  627.5094740630558    
_TOKELVIN=  315775.0248040668    
_TOKJ=  2625.499639479825    
_TOKJOULE=  2625.499639479825    
_TOKG= 0.1660539066600000E-26
_ANG=  1.889726124625770    
_ANGSTROM=  1.889726124625770    
_RPAREF=  0.000000000000000    
_RPADISS=  0.000000000000000    
_IGNORE_UNDEF=  2.000000000000000    
_STRICTCHECK=  0.000000000000000    
!SEWARD=  0.000000000000000    
!MULTI=  0.000000000000000    
!DFMULTI=  0.000000000000000    
!NUMHESS=  0.000000000000000    
_SEW_ONEEL=  0.000000000000000    
_CPPDONE=FALSE
_DKROLL_DONE=  0.000000000000000    
_FNUC_DONE=  0.000000000000000    
_FOCKDONE=TRUE
_GRADONE=FALSE
_HESSDONE=TRUE
_INTDONE=TRUE
_SCFDONE=TRUE
_MODUL_BLOCK=FALSE
_MODUL_SLATER=TRUE
_MODUL_MRCC=FALSE
_MODUL_NBO6=FALSE
_MODUL_NECI=FALSE
_MODUL_AIMS=TRUE
_MODUL_HDF5=FALSE
_MODUL_GECCO=FALSE
_ISWINDOWS=FALSE
_MRCC_EXEC=
_FITC_AO_SAVED=FALSE
_FITC_MO_SAVED=FALSE
_LSTYP=SEWARD
_INTYP=INTS
_GEOMTYP=XYZ
_GRADTYP=ALASKA
_DIRECT=FALSE
_DKHO= -1.000000000000000    
_FNUC=  0.000000000000000    
_SYNCM=  0.000000000000000    
_BASIS=6-311G(D,P)
_ZCENTRE=MASS
_ZORIENT=  1.000000000000000    
_NELEC=  26.00000000000000    
!SPIN=  0.000000000000000    
_OPTCONV= 0.1945451743666837E-03
_QSDSTEP=  0.000000000000000    
_QSDIRC=  0.000000000000000    
_PROGRAM=FREQ
_CPUSTEP=  4.550000000000001    
_SYSSTEP= 0.1400000000000000    
_WALLSTEP=  4.690000000000000    
!DFSCF=  0.000000000000000    
!SCSGRD=  0.000000000000000    
_NCEN=  5.000000000000000    
_CPUTOT=  8.690000000000001    
_DFTEXFAC=  1.000000000000000    
_DMX=-0.3713726639035207E-09
_DMY= 0.2723689329631185E-13
_DMZ=-0.9122265386352861    
_DMX_SCF=-0.3713726639035207E-09
_DMY_SCF= 0.2723689329631185E-13
_DMZ_SCF=-0.9122265386352861    
_FREQUENCIES= 0.3340330273123683E-04
_HOMO=  13.10000000000000    
_EHOMO=-0.4372941317876121    
_LUMO=  14.10000000000000    
_ELUMO= 0.1418603569377738    
_ENERGY= -499.1307784433478    
_ENERGY_METHOD=HF
_ENERGY_BASIS=6-311G(D,P)
_GEOMETRY_METHOD=HF
_GEOMETRY_BASIS=6-311G(D,P)
_ENUC=  51.33011867908530    
_GRADENERG= -499.1307784409443    
_GRADEXFAC=  9999.000000000000    
_GRADMETHOD=  1.000000000000000    
_NMRMETHOD=  0.000000000000000    
_NMRMAGNET=  0.000000000000000    
_VIRIAL= 0.4202478275586680E-04
!GRID_FREEZE= -1.000000000000000    
!NEESE_INDEX=  0.000000000000000    
_ITERATIONS=  2.000000000000000    
_LASTNELEC=  26.00000000000000    
_LASTSPIN=  0.000000000000000    
_LASTSYM=  1.000000000000000    
_MPP_PROG=  0.000000000000000    
_MSNSTATES=  0.000000000000000    
_RS2PHASE=  0.000000000000000    
_NPROC_MPP=  1.000000000000000    
_NPROC_SMP=  6.000000000000000    
_NUMSTEP=  0.000000000000000    
_OPTCONVMX= 0.1846675259486423E-03
_OPTCONVRMS= 0.1123207087901475E-03
_OPTGRAD= 0.3611463712942918E-04
_OPTGRADMX= 0.3601467344295210E-04
_OPTGRADRMS= 0.2085079546836159E-04
!GMAXLAST= 0.3601467344295210E-04
!DMAXLAST= 0.1846675259486423E-03
!DELAST= 0.1366108278944012E-05
_OPTSTEP=  4.000000000000000    
_ORBITAL=  2100.200000000000    
_PI=  3.141592653589793    
_SEIG_MIN= 0.1070487726096338E-01
_SEWPROP=TRUE
_STATUS=  1.000000000000000    
_SYSTOT= 0.4600000000000000    
_VERSION=  2024001.000000000    
_WALLTOT=  9.160000000000000    
_ZPE= 0.4010342904732151E-01
_DATE=30-Sep-24
_LASTORB=0
_OUTPUT=/home/lme/Theoretische_Chemie/Nomodeco/deuterium_calculations/CH3Cl/CH3Cl.molpro/run/CH3Cl_1.molpro/CH3Cl_1.out
_PGROUP=C1
_TIME=10:35:03
_LIBMOL=/usr/local/molpro/molpro_2024.1.0_sockets/lib/
_VIGRDC=  0.000000000000000    
!VIBCNT=  0.000000000000000    
!SURFREC=  0.000000000000000    
!XSURFREC=  0.000000000000000    
!XPOLYREC=  0.000000000000000    
!ROTREC=  0.000000000000000    
!POLYREC=  0.000000000000000    
!DIPREC=  0.000000000000000    
!DIP4DREC=  0.000000000000000    
!DIPROT=  0.000000000000000    
!DIP4DROT=  0.000000000000000    
!PTREC=  0.000000000000000    
!PT4DREC=  0.000000000000000    
!VSCFREC=  0.000000000000000    
!VCIREC=  0.000000000000000    
!PVCIREC=  0.000000000000000    
!VMP2REC=  0.000000000000000    
!VMCSCFREC=  0.000000000000000    
!VMRCIREC=  0.000000000000000    
!VIBSTATEREC=  0.000000000000000    
!VIBSTATECNT=  0.000000000000000    
!VIBINFO=  0.000000000000000    
!GAREC=  0.000000000000000    
!SCFORB=  21002.00000000000    
!DEFCORE=  6.000000000000000    
!SCORE=  1.000000000000000    
!NEWMOL=  0.000000000000000    
!NEWSYM=  0.000000000000000    
_SLFILES=slscratch
_NGSSTO=  9.000000000000000    
_SIN=SIN
_COS=COS
_TAN=TAN
_ACOS=ACOS
_ASIN=ASIN
_ATAN=ATAN
_COSH=COSH
_SINH=SINH
_TANH=TANH
_ABS=ABS
_MOD=MOD
_ERF=ERF
_REFC=REFC
_ERFC=ERFC
_HYPOT=HYPOT
_J0=J0
_J1=J1
_JN=JN
_GAMMA=GAMMA
_LGAMMA=LGAMMA
_Y0=Y0
_Y1=Y1
_YN=YN
_EXP=EXP
_LOG=LOG
_LOG10=LOG10
_SQRT=SQRT
_INT=INT
_NINT=NINT
_MAX=MAX
_MIN=MIN
_COSMO=  0.000000000000000    
_COSMOIT=  0.000000000000000    
_COSMOES=  0.000000000000000    
_COSMOEDS=  0.000000000000000    
_COSMOEC=  0.000000000000000    
_COSMOEDCORR=  0.000000000000000    
_FEPSI=  1.000000000000000    
_SL_IsMM=  0.000000000000000    
_SL_NSYM=  1.000000000000000    
_SL_System_BitSw=  0.000000000000000    
_SL_Unique_atoms=  0.000000000000000    
_SL_GRAD=  0.000000000000000    
_SL_MAXUPD_Hess=  5.000000000000000    
_SL_N_PRINT_COD=  5.000000000000000    
_SL_PRINT_CODES=  0.000000000000000    
_SL_BasType=  0.000000000000000    
_SL_Energy_Pred=  0.000000000000000    
_SL_New_Coords=  0.000000000000000    
_SL_Total_Nuclea=  0.000000000000000    
_SL_Highest_Mltp=  0.000000000000000    
_SL_Ref_Geom=  0.000000000000000    
_SL_Symmetry_ope=  1.000000000000000    
_SL_agrad=  0.000000000000000    
_SL_GrdMax=  0.000000000000000    
_SL_GrdNorm=  0.000000000000000    
_SL_GrdRMS=  0.000000000000000    
_SL_Hss_Q=  0.000000000000000    
_SL_Hss_X=  0.000000000000000    
_SL_BMxOld=  0.000000000000000    
_SL_KtB=  0.000000000000000    
_SL_TROld=  0.000000000000000    
_SL_No_of_Intern=  0.000000000000000    
_SL_Hess=  0.000000000000000    
_SL_K=  0.000000000000000    
!LATTICE= -1.000000000000000    
!NEWLATTICE=  0.000000000000000    
!LATGRAD_VAR=FALSE
!SEW_LATTICE=  1.000000000000000    
!AIC_ONEEL=  0.000000000000000    
!LOCAL=  0.000000000000000    
!SAVEDOM= -1.000000000000000    
!RESTDOM= -1.000000000000000    
!SAVEDOM_HF= -1.000000000000000    
!RESTDOM_HF= -1.000000000000000    
!HESSREC=  5300.200000000000    
!FREQREC=  5400.200000000000    
!NMODREC=  5450.200000000000    
!GTASKS=  0.000000000000000    
!HTASKS=  0.000000000000000    
!SAVEDOM_EOM= -1.000000000000000    
!RESTDOM_EOM= -1.000000000000000    
!GRADSTATE= -1.000000000000000    
!DEBUG=  0.000000000000000    
!CFIT_CPHF=  0.000000000000000    
!RDOMAUX_CPHF=  0.000000000000000    
!THRAO_CPHF= 0.1000000000000000E-11
!THRMO_CPHF= 0.1000000000000000E-11
!THROV_CPHF= 0.1000000000000000E-13
!THRSW_CPHF= 0.1000000000000000E-11
!THRPROD_CPHF= 0.1000000000000000E-11
!THRAOPR_CPHF= 0.1000000000000000E-11
!CFIT_SCFGRD=  0.000000000000000    
!RDOMAUX_SCFGRD=  0.000000000000000    
!THRAO_SCFGRD= 0.1000000000000000E-11
!THRMO_SCFGRD= 0.1000000000000000E-11
!THROV_SCFGRD= 0.1000000000000000E-13
!THRSW_SCFGRD= 0.1000000000000000E-11
!THRPROD_SCFGRD= 0.1000000000000000E-11
!THRAOPR_SCFGRD= 0.1000000000000000E-11
!LOCFIT_SCF=  0.000000000000000    
!LOCFIT_MP2=  0.000000000000000    
_RIDOM=  0.000000000000000    
!CC2_METHOD=  0.000000000000000    
_BASIS2006=FALSE
_SVDDEL= -1.000000000000000    
_SVDDELA= -1.000000000000000    
_SVDDELP= -1.000000000000000    
_SVDDELF= -1.000000000000000    
_SVDDELS= -1.000000000000000    
_SVDDEL_ABS= -1.000000000000000    
_SVDDELA_ABS= -1.000000000000000    
_SVDDELP_ABS= -1.000000000000000    
_SVDDELF_ABS= -1.000000000000000    
_SVDDELS_ABS= -1.000000000000000    
_MAXBASIS=  0.000000000000000    
!OPT_CONICAL=  0.000000000000000    
!CLEARSP_JGRID=  0.000000000000000    
_GRDHYBR=  0.000000000000000    
_STATEGRAD=  1.000000000000000    
_4EXT_NDISKS=  1.000000000000000    
!EMBEDFLAG=  1.000000000000000    
!EMBED=FALSE
!EMBED_F12=FALSE
!EMBEDNUC=  0.000000000000000    
_EMBEDENERGY=  0.000000000000000    
!EMBED_DFC=FALSE
!NUM_VOIDS=  0.000000000000000    
_IBODY=  0.000000000000000    
_EMBE_CORR=  0.000000000000000    
!EMBED_PROJ=FALSE
!EMB_PROJ_ZMU=  1000000.000000000    
!CORRECTION_HF=  0.000000000000000    
!EMBED_AORB=  0.000000000000000    
!EMBED_NACORR=  0.000000000000000    
!EMBED_MP2=FALSE
!EMBED_TRUNC_PERTURBATION=FALSE
!EMBED_FROZEN=  0.000000000000000    
!EMBED_ACTIVE=  0.000000000000000    
_CHANGE_BASIS=FALSE
_RESTORE_BASIS=FALSE
_FIX_EMBED_GUESS=FALSE
_EMBED_SCF=FALSE
_NEOBAS=FALSE
_NEOOVE=FALSE
_PRINEO=FALSE
_HUZINAGA_T=FALSE
_HUZINAGA_F=FALSE
_HUZINAGA=FALSE
_HUZINAGA_CORRECT=FALSE
!FASTLATGRAD=  1.000000000000000    
!FASTVLAMBDA= -1.000000000000000    
!IFORCE= -1.000000000000000    
!USESYM= -1.000000000000000    
_SINDEX=  0.000000000000000    
_AVDOM_OSV=  0.000000000000000    
_AVDOM_PNO=  0.000000000000000    
_AVDOM_PNOCC=  0.000000000000000    
_AVDOM_TNO=  0.000000000000000    
_AVDOM_TNOIT=  0.000000000000000    
_AVDOM_PAO=  0.000000000000000    
_AVDOM_LMO=  0.000000000000000    
_CC2OSV_FLAG=  0.000000000000000    
_EOMCCSD_CONV=FALSE
_TMADC2_FLAG=FALSE
_PROPADC2_FLAG=FALSE
_LEN_VirQ=  0.000000000000000    
_GRDCC2LR_FLAG=FALSE
_GRDADC2_FLAG=FALSE
_RO_VGLOBAL=  0.000000000000000    
_OPT=FALSE
_FREQ=FALSE
_HESS=FALSE
_CMRCC_callName=EMPTY
_CMRCC_callCount=  0.000000000000000    
_GECCO_CIROOT=  1.000000000000000    
_SYM_CATION=  1.000000000000000    
_MON_A=FALSE
_MON_B=FALSE
_MAXGEOM=  100.0000000000000    
!MAXGEOM=  100.0000000000000    
_NCORE=  0.000000000000000    
_NLARGECORE=  0.000000000000000    
GX1=  0.000000000000000    
GY1=  0.000000000000000    
GZ1= -1.231478142236874    
GX2=  0.000000000000000    
GY2=  0.000000000000000    
GZ2= 0.5581289868636901    
GX3= 0.5121049680308724    
GY3=-0.8869918234379062    
GZ3= -1.567531107565256    
GX4= -1.024209936061745    
GY4=  0.000000000000000    
GZ4= -1.567531107565256    
GX5= 0.5121049680308724    
GY5= 0.8869918234379062    
GZ5= -1.567531107565256    
CX1=  0.000000000000000    
CY1=  0.000000000000000    
CZ1= -2.327156417290630    
CLX2=  0.000000000000000    
CLY2=  0.000000000000000    
CLZ2=  1.054710927387228    
HX3= 0.9677381366385843    
HY3= -1.676171621080060    
HZ3= -2.962204485129634    
HX4= -1.935476273277169    
HY4=  0.000000000000000    
HZ4= -2.962204485129634    
HX5= 0.9677381366385843    
HY5=  1.676171621080060    
HZ5= -2.962204485129634    
[Atoms] Angs
C     1    6         0.0000000000        0.0000000000       -1.2314781422
CL    2   17         0.0000000000        0.0000000000        0.5581289869
H     3    1         0.5121049680       -0.8869918234       -1.5675311076
H     4    1        -1.0242099361        0.0000000000       -1.5675311076
H     5    1         0.5121049680        0.8869918234       -1.5675311076
[GTO]
   1 0
 s    6  1.00
  0.4563240000D+04  0.1966650249D-02
  0.6820240000D+03  0.1523060193D-01
  0.1549730000D+03  0.7612690966D-01
  0.4445530000D+02  0.2608010331D+00
  0.1302900000D+02  0.6164620782D+00
  0.1827730000D+01  0.2210060280D+00
 s    3  1.00
  0.2096420000D+02  0.1146600807D+00
  0.4803310000D+01  0.9199996477D+00
  0.1459330000D+01 -0.3030682134D-02
 s    1  1.00
  0.4834560000D+00  0.1000000000D+01
 s    1  1.00
  0.1455850000D+00  0.1000000000D+01
 p    3  1.00
  0.2096420000D+02  0.4024869267D-01
  0.4803310000D+01  0.2375939567D+00
  0.1459330000D+01  0.8158538515D+00
 p    1  1.00
  0.4834560000D+00  0.1000000000D+01
 p    1  1.00
  0.1455850000D+00  0.1000000000D+01
 d    1  1.00
  0.6260000000D+00  0.1000000000D+01
  
   2 0
 s    6  1.00
  0.1058190000D+06  0.7380002465D-03
  0.1587200000D+05  0.5718001910D-02
  0.3619650000D+04  0.2949500985D-01
  0.1030800000D+04  0.1172860392D+00
  0.3399080000D+03  0.3629491212D+00
  0.1245380000D+03  0.5841491951D+00
 s    3  1.00
  0.1245380000D+03  0.1341769734D+00
  0.4951350000D+02  0.6242498762D+00
  0.2080560000D+02  0.2917559421D+00
 s    1  1.00
  0.6583460000D+01  0.1000000000D+01
 s    1  1.00
  0.2564680000D+01  0.1000000000D+01
 s    1  1.00
  0.5597630000D+00  0.1000000000D+01
 s    1  1.00
  0.1832730000D+00  0.1000000000D+01
 p    5  1.00
  0.5897760000D+03  0.2390999685D-02
  0.1398490000D+03  0.1850399756D-01
  0.4514130000D+02  0.8137698928D-01
  0.1687330000D+02  0.2215519708D+00
  0.6741100000D+01  0.7725688983D+00
 p    2  1.00
  0.6741100000D+01 -0.1572243813D+01
  0.2771520000D+01  0.9923888817D+00
 p    1  1.00
  0.1023870000D+01  0.1000000000D+01
 p    1  1.00
  0.3813680000D+00  0.1000000000D+01
 p    1  1.00
  0.1094370000D+00  0.1000000000D+01
 d    1  1.00
  0.7500000000D+00  0.1000000000D+01
  
   3 0
 s    3  1.00
  0.3386500000D+02  0.2549381454D-01
  0.5094790000D+01  0.1903731086D+00
  0.1158790000D+01  0.8521614860D+00
 s    1  1.00
  0.3258400000D+00  0.1000000000D+01
 s    1  1.00
  0.1027410000D+00  0.1000000000D+01
 p    1  1.00
  0.7500000000D+00  0.1000000000D+01
  
   4 0
 s    3  1.00
  0.3386500000D+02  0.2549381454D-01
  0.5094790000D+01  0.1903731086D+00
  0.1158790000D+01  0.8521614860D+00
 s    1  1.00
  0.3258400000D+00  0.1000000000D+01
 s    1  1.00
  0.1027410000D+00  0.1000000000D+01
 p    1  1.00
  0.7500000000D+00  0.1000000000D+01
  
   5 0
 s    3  1.00
  0.3386500000D+02  0.2549381454D-01
  0.5094790000D+01  0.1903731086D+00
  0.1158790000D+01  0.8521614860D+00
 s    1  1.00
  0.3258400000D+00  0.1000000000D+01
 s    1  1.00
  0.1027410000D+00  0.1000000000D+01
 p    1  1.00
  0.7500000000D+00  0.1000000000D+01


[MO]
 Sym=      1.1
 Ene=    -104.8250
 Spin= Alpha
 Occup=    2.000000
1 0.000000031156273
2 0.000000807037720
3 0.000000518491848
4 0.000037819744412
5 -0.000000000001168
6 -0.000000000000001
7 0.000008203673762
8 0.000000000003592
9 0.000000000000003
10 -0.000029386452436
11 -0.000000000004741
12 0.000000000000001
13 0.000029295155420
14 0.000007164624363
15 0.000007164623887
16 -0.000014329248251
17 0.000000000000001
18 -0.000000000000144
19 -0.000000000000001
20 0.41173267898764
21 0.65466344517367
22 0.012078278173118
23 -0.000899611126431
24 0.000201791829879
25 -0.000126818822545
26 -0.000000000000771
27 -0.000000000000001
28 -0.000155185240468
29 -0.000000000000969
30 -0.000000000000001
31 -0.000099868673934
32 0.000000000000536
33 0.000000000000001
34 0.000097970607457
35 0.000000000000480
36 -0.000000000000000
37 -0.000063177738005
38 -0.000000000000965
39 -0.000000000000000
40 0.000046878978098
41 -0.000004553621163
42 -0.000004553621372
43 0.000009107242535
44 -0.000000000000000
45 -0.000000000000203
46 0.000000000000000
47 -0.000000918927205
48 -0.000011463152356
49 0.000009669205246
50 0.000002340545944
51 -0.000004053946213
52 -0.000000092542924
53 -0.000000918929155
54 -0.000011463144698
55 0.000009669189117
56 -0.000004681093946
57 -0.000000000000000
58 -0.000000092542986
59 -0.000000918927205
60 -0.000011463152363
61 0.000009669205249
62 0.000002340545945
63 0.000004053946215
64 -0.000000092542925
 Sym=      2.1
 Ene=     -11.2927
 Spin= Alpha
 Occup=    2.000000
1 0.56343419412926
2 0.46656159519707
3 0.004153827244623
4 -0.001229770882157
5 -0.000000000003252
6 -0.000000000000000
7 0.001057194790551
8 -0.000000000006297
9 0.000000000000001
10 -0.000686782311664
11 0.000000000004584
12 -0.000000000000001
13 0.000067506058928
14 0.000155686865032
15 0.000155686824540
16 -0.000311373689572
17 0.000000000000000
18 -0.000000000007185
19 -0.000000000000000
20 -0.000015880468377
21 -0.000047897316741
22 0.000106482771420
23 -0.000055871510756
24 0.000138057428416
25 0.000340688372924
26 0.000000000018987
27 0.000000000000000
28 0.000099324054112
29 0.000000000011884
30 0.000000000000000
31 0.000040184226037
32 -0.000000000015487
33 -0.000000000000000
34 -0.000025783127601
35 0.000000000015926
36 0.000000000000000
37 -0.000510643436726
38 -0.000000000011879
39 -0.000000000000000
40 -0.000050394251958
41 -0.000126804255662
42 -0.000126804253580
43 0.000253608509242
44 -0.000000000000000
45 -0.000000000000975
46 -0.000000000000000
47 0.000351070068725
48 0.000093791963770
49 0.000238718127613
50 0.000002966401720
51 -0.000005138003844
52 0.000041009253443
53 0.000351070059631
54 0.000093791974633
55 0.000238718089142
56 -0.000005932866860
57 0.000000000000000
58 0.000041009233400
59 0.000351070068725
60 0.000093791963768
61 0.000238718127616
62 0.000002966401721
63 0.000005138003844
64 0.000041009253443
 Sym=      3.1
 Ene=     -10.5513
 Spin= Alpha
 Occup=    2.000000
1 -0.000117613660643
2 -0.000137389052815
3 0.000073068044968
4 0.004511460908537
5 0.000000000011208
6 0.000000000000001
7 0.000588089904703
8 -0.000000000040506
9 -0.000000000000000
10 -0.001436046856786
11 0.000000000010351
12 -0.000000000000002
13 0.002886800398839
14 0.000340338015730
15 0.000340337994688
16 -0.000680676010418
17 -0.000000000000000
18 0.000000000013923
19 0.000000000000001
20 -0.12194218364865
21 -0.33149409371494
22 0.51184303485974
23 0.60571716135049
24 0.042625610809666
25 -0.011831627482322
26 -0.000000000013372
27 0.000000000000002
28 -0.005656399528769
29 -0.000000000009978
30 0.000000000000001
31 -0.001485759563423
32 0.000000000008393
33 -0.000000000000000
34 -0.000900761912613
35 -0.000000000007494
36 0.000000000000001
37 -0.000059617953984
38 0.000000000009754
39 0.000000000000000
40 0.002789829737619
41 -0.000112138568096
42 -0.000112138565535
43 0.000224277133631
44 -0.000000000000000
45 0.000000000001594
46 -0.000000000000000
47 0.000011743007022
48 -0.001266449865877
49 0.000695654605847
50 0.000162225941455
51 -0.000280983573147
52 -0.000110981636476
53 0.000011743011448
54 -0.001266449940688
55 0.000695654674632
56 -0.000324451907573
57 0.000000000000000
58 -0.000110981638378
59 0.000011743007023
60 -0.001266449865876
61 0.000695654605849
62 0.000162225941454
63 0.000280983573146
64 -0.000110981636476
 Sym=      4.1
 Ene=      -8.0195
 Spin= Alpha
 Occup=    2.000000
1 0.000055576192615
2 0.000131564516204
3 -0.000217923787379
4 -0.000967594619454
5 0.000000000001789
6 -0.000000000000000
7 -0.000123239297295
8 0.000000000000604
9 0.000000000000001
10 -0.000295021322864
11 0.000000000047922
12 0.000000000000000
13 -0.000221787026928
14 0.000046353232358
15 0.000046353296108
16 -0.000092706528467
17 0.000000000000001
18 -0.000000000007023
19 -0.000000000000001
20 -0.000667343724800
21 -0.001855216391740
22 0.003481535254326
23 0.002732074685850
24 -0.000815593373769
25 0.000583110245401
26 -0.000000002471811
27 -0.000000000001783
28 1.23010579743436
29 -0.000000000652312
30 -0.000000000000474
31 0.32709589558471
32 -0.000000000096165
33 -0.000000000000070
34 0.051725399817388
35 -0.000000000009619
36 0.000000000000002
37 -0.003265470808421
38 0.000000000014624
39 -0.000000000000001
40 0.000856971840198
41 0.000191256017348
42 0.000191256020713
43 -0.000382512038060
44 0.000000000000000
45 0.000000000000758
46 0.000000000000001
47 -0.000028217601072
48 0.000318933913048
49 0.000093671983153
50 -0.000025069168816
51 0.000043421142896
52 0.000076027867825
53 -0.000028217583831
54 0.000318933886082
55 0.000093672164063
56 0.000050138443009
57 -0.000000000000000
58 0.000076027881459
59 -0.000028217601073
60 0.000318933913047
61 0.000093671983154
62 -0.000025069168815
63 -0.000043421142896
64 0.000076027867826
 Sym=      5.1
 Ene=      -8.0166
 Spin= Alpha
 Occup=    2.000000
1 0.000000000000000
2 -0.000000000000000
3 0.000000000000001
4 0.000000000000014
5 -0.000000000022501
6 0.000002151937565
7 0.000000000000001
8 -0.000000000625648
9 0.000059835584200
10 -0.000000000000004
11 0.000000000972574
12 -0.000093015377870
13 -0.000000000000002
14 0.000000000014969
15 -0.000000000014968
16 -0.000000000000001
17 0.000001653084623
18 -0.000000000688979
19 0.000065892584390
20 -0.000000000000001
21 -0.000000000000002
22 0.000000000000005
23 0.000000000000003
24 0.000000000000000
25 -0.000000000000002
26 -0.000012875046319
27 1.23134340376439
28 0.000000000001752
29 -0.000003422221515
30 0.32729434794433
31 0.000000000000465
32 -0.000000514505048
33 0.049206222778053
34 0.000000000000076
35 0.000000022651045
36 -0.002166300144586
37 -0.000000000000006
38 -0.000000007923465
39 0.000757784359244
40 0.000000000000002
41 0.000000000014946
42 -0.000000000014946
43 -0.000000000000000
44 0.000001650492024
45 0.000000003657086
46 -0.000349756354826
47 0.000020276715279
48 -0.000076111658284
49 0.000123415348886
50 0.000006417009269
51 -0.000009609622591
52 0.000019689177200
53 -0.000000000244810
54 0.000000000918930
55 -0.000000001490065
56 0.000000000139214
57 0.000001504984965
58 -0.000000000237720
59 -0.000020276470469
60 0.000076110739344
61 -0.000123413858828
62 -0.000006416963259
63 -0.000009609488397
64 -0.000019688939480
 Sym=      6.1
 Ene=      -8.0166
 Spin= Alpha
 Occup=    2.000000
1 0.000000000001378
2 0.000000000018968
3 -0.000000000104318
4 -0.000000000591526
5 0.000002151888573
6 0.000000000022502
7 -0.000000000017677
8 0.000059835906139
9 0.000000000625643
10 0.000000000134206
11 -0.000093015168954
12 -0.000000000972577
13 0.000000000033617
14 -0.000001431692729
15 0.000001431598717
16 0.000000000094012
17 0.000000000017283
18 0.000065892464184
19 0.000000000688979
20 -0.000000000001964
21 -0.000000000003289
22 -0.000000000002630
23 0.000000000029757
24 -0.000000000036332
25 0.000000000077213
26 1.23134340376239
27 0.000012875046317
28 0.000000002477221
29 0.32729434794242
30 0.000003422221514
31 0.000000000661804
32 0.049206222782709
33 0.000000514505047
34 0.000000000102944
35 -0.002166300154660
36 -0.000000022651041
37 -0.000000000012285
38 0.000757784298081
39 0.000000007923465
40 -0.000000000029110
41 -0.000001429352168
42 0.000001429370313
43 -0.000000000018145
44 0.000000000017259
45 -0.000349756334225
46 -0.000000003657086
47 -0.000011706425874
48 0.000043941962642
49 -0.000071252014255
50 -0.000002199944101
51 0.000006416857440
52 -0.000011367254199
53 0.000023413353339
54 -0.000087884997090
55 0.000142506887616
56 -0.000013314119851
57 0.000000000015737
58 0.000022735040409
59 -0.000011706849905
60 0.000043943554302
61 -0.000071254595130
62 -0.000002200078295
63 -0.000006417058399
64 -0.000011367665938
 Sym=      7.1
 Ene=      -1.1303
 Spin= Alpha
 Occup=    2.000000
1 -0.058479177983779
2 -0.096424247913873
3 0.24519856647392
4 0.10797223457816
5 0.000000000053918
6 -0.000000000000001
7 0.023434227446776
8 -0.000000000249360
9 -0.000000000000002
10 0.072545461827279
11 0.000000000055813
12 -0.000000000000005
13 -0.002387148563377
14 -0.010321684981395
15 -0.010321685091163
16 0.020643370072558
17 -0.000000000000002
18 0.000000000037993
19 0.000000000000001
20 0.029708464559059
21 0.085861237449820
22 -0.16883089763837
23 -0.34080440831370
24 0.51147314894994
25 0.44493870991304
26 0.000000000015808
27 -0.000000000000000
28 0.050049157249026
29 0.000000000024383
30 -0.000000000000000
31 0.012668414493440
32 -0.000000000008259
33 0.000000000000000
34 -0.029869101916069
35 -0.000000000017452
36 0.000000000000001
37 -0.078693355429003
38 0.000000000063963
39 0.000000000000001
40 -0.017773530858842
41 -0.012234458783509
42 -0.012234458748043
43 0.024468917531552
44 0.000000000000000
45 -0.000000000025682
46 -0.000000000000000
47 0.037695039345630
48 0.057141406596208
49 -0.007169435122996
50 -0.006462355705055
51 0.011193128457074
52 0.005130636263563
53 0.037695039397384
54 0.057141406182196
55 -0.007169434797358
56 0.012924711264210
57 0.000000000000000
58 0.005130636212137
59 0.037695039345629
60 0.057141406596221
61 -0.007169435122993
62 -0.006462355705056
63 -0.011193128457076
64 0.005130636263565
 Sym=      8.1
 Ene=      -0.9213
 Spin= Alpha
 Occup=    2.000000
1 -0.085368975328975
2 -0.14173833746534
3 0.36615435333477
4 0.26961692311272
5 0.000000000083802
6 0.000000000000001
7 -0.048795989453330
8 -0.000000000114806
9 -0.000000000000005
10 -0.061742583675706
11 0.000000000168758
12 0.000000000000003
13 -0.023766521104778
14 0.006466409190527
15 0.006466409210116
16 -0.012932818400642
17 -0.000000000000002
18 -0.000000000040070
19 0.000000000000001
20 -0.019834116911526
21 -0.057600341328092
22 0.11558372707740
23 0.22530674405555
24 -0.33978104943656
25 -0.36187742516915
26 -0.000000000034768
27 0.000000000000000
28 0.053688954254599
29 0.000000000005178
30 0.000000000000000
31 0.013288597396628
32 0.000000000029299
33 -0.000000000000000
34 -0.037633008341917
35 0.000000000039778
36 -0.000000000000001
37 -0.081143268953147
38 0.000000000075156
39 0.000000000000001
40 -0.008070036570826
41 -0.008066898810576
42 -0.008066898759625
43 0.016133797570201
44 0.000000000000000
45 -0.000000000002662
46 -0.000000000000000
47 0.083447191062704
48 0.11160429604713
49 0.002053027465230
50 -0.008998437082082
51 0.015585750190423
52 0.003575528563536
53 0.083447191002642
54 0.11160429611031
55 0.002053027615476
56 0.017996874094257
57 -0.000000000000000
58 0.003575528545950
59 0.083447191062701
60 0.11160429604716
61 0.002053027465208
62 -0.008998437082084
63 -0.015585750190426
64 0.003575528563538
 Sym=      9.1
 Ene=      -0.6243
 Spin= Alpha
 Occup=    2.000000
1 0.000000000011594
2 -0.000000000012145
3 0.000000000318024
4 -0.000000001271849
5 0.18720434440841
6 0.000000515063229
7 -0.000000000021249
8 0.30290178370882
9 0.000000833386493
10 -0.000000000192231
11 0.19820254813716
12 0.000000545323039
13 -0.000000000083438
14 -0.024398437247855
15 0.024398437289790
16 -0.000000000041935
17 0.000000077513263
18 -0.006444184877860
19 -0.000000017730161
20 0.000000000001855
21 0.000000000003236
22 0.000000000000787
23 -0.000000000027206
24 -0.000000000098438
25 0.000000000448799
26 -0.10021072721267
27 -0.000000275714009
28 -0.000000000107132
29 -0.023997636127124
30 -0.000000066025710
31 -0.000000000047668
32 0.069398240296465
33 0.000000190938311
34 0.000000000120482
35 0.17390554693254
36 0.000000478473684
37 -0.000000000028510
38 0.059500172477476
39 0.000000163705338
40 -0.000000000076574
41 -0.001024927139301
42 0.001024927128276
43 0.000000000011025
44 0.000000003256170
45 -0.023326643852983
46 -0.000000064179581
47 0.075476173841535
48 0.11135347638158
49 0.029566242554608
50 0.003411287792160
51 0.010332387163647
52 0.003375606741680
53 -0.15095306692727
54 -0.22270801390320
55 -0.059132766029687
56 -0.014485000950330
57 0.000000025798456
58 -0.006751245539712
59 0.075476893203030
60 0.11135453768872
61 0.029566524349741
62 0.003411230936166
63 -0.010332434044206
64 0.003375638914497
 Sym=     10.1
 Ene=      -0.6243
 Spin= Alpha
 Occup=    2.000000
1 0.000000000000000
2 -0.000000000000000
3 0.000000000000003
4 -0.000000000000014
5 -0.000000515063227
6 0.18720434444690
7 -0.000000000000000
8 -0.000000833386480
9 0.30290178369944
10 -0.000000000000001
11 -0.000000545323061
12 0.19820254861670
13 0.000000000000000
14 0.000000067128452
15 -0.000000067128451
16 -0.000000000000001
17 0.028172888612757
18 0.000000017730158
19 -0.006444184861354
20 0.000000000000000
21 0.000000000000000
22 0.000000000000000
23 -0.000000000000000
24 -0.000000000000002
25 0.000000000000005
26 0.000000275714009
27 -0.10021072709734
28 -0.000000000000001
29 0.000000066025711
30 -0.023997636079562
31 -0.000000000000000
32 -0.000000190938312
33 0.069398240140229
34 0.000000000000001
35 -0.000000478473681
36 0.17390554693975
37 0.000000000000001
38 -0.000000163705339
39 0.059500172264665
40 -0.000000000000001
41 0.000000002819925
42 -0.000000002819925
43 0.000000000000000
44 0.001183483879003
45 0.000000064179581
46 -0.023326643840070
47 -0.13072939835692
48 -0.19287110438146
49 -0.051210558387887
50 0.010332401210544
51 -0.008519609235993
52 -0.005846759433568
53 0.000000415323552
54 0.000000612745972
55 0.000000162694470
56 0.000000039853196
57 0.009376679356311
58 0.000000018574987
59 0.13072898303336
60 0.19287049163549
61 0.051210395693426
62 -0.010332419981629
63 -0.008519552379998
64 0.005846740858581
 Sym=     11.1
 Ene=      -0.5462
 Spin= Alpha
 Occup=    2.000000
1 0.000694991572065
2 0.001730817443667
3 -0.002482193316212
4 -0.083880426323124
5 -0.000000000017996
6 -0.000000000000002
7 -0.13940356242264
8 -0.000000000258690
9 0.000000000000005
10 -0.27117769675954
11 -0.000000000363108
12 -0.000000000000009
13 -0.15595063555279
14 0.020300553341336
15 0.020300553181013
16 -0.040601106522349
17 0.000000000000001
18 0.000000000022526
19 -0.000000000000001
20 0.006482253073542
21 0.019150402815261
22 -0.041224181519119
23 -0.068521376169732
24 0.094012854987288
25 0.22157936011208
26 0.000000000003782
27 0.000000000000002
28 -0.26896214208872
29 0.000000000001915
30 0.000000000000000
31 -0.065550835665363
32 0.000000000017077
33 -0.000000000000002
34 0.19013189128944
35 -0.000000000060166
36 -0.000000000000001
37 0.45069758511935
38 0.000000000108551
39 -0.000000000000003
40 0.16440993906884
41 0.026993468519956
42 0.026993468554034
43 -0.053986937073990
44 0.000000000000000
45 -0.000000000002488
46 0.000000000000000