
 Working directory              : /tmp/lme/molpro.OxExF5CAmg/
 Global scratch directory       : /tmp/lme/molpro.OxExF5CAmg/
 Wavefunction directory         : /home/lme/wfu/
 Main file repository           : /tmp/lme/molpro.OxExF5CAmg/

 id        : liedlgroup

 Nodes     nprocs
 sv1-c724     1
 GA implementation: MPI file
 GA implementation (serial work in mppx): MPI file

 Using customized tuning parameters: mindgm=1; mindgv=20; mindgc=4; mindgr=1; noblas=0; minvec=7
 default implementation of scratch files=df  


 Variables initialized (1042), CPU time= 0.01 sec
 
                     orient,mass
                     geometry=initial.xyz
 Including file /home/lme/Theoretische_Chemie/Nomodeco/deuterium_calculations/CH3Cl/CH3Cl.molpro/run/CH3Cl_1.molpro/initial.xyz
                     mass, iso
                     basis=6-311g(d,p)
                     {hf
                     start, atden}
                     optg;
                     {frequencies, symm=auto, print=0, analytical}
                     put, molden, CH3Cl.molden
 Commands initialized (847), CPU time= 0.00 sec, 718 directives.
 Default parameters read. Elapsed time= 0.07 sec

 Checking input...
 Passed
1


                                         ***  PROGRAM SYSTEM MOLPRO  ***
                                       Copyright, TTI GmbH Stuttgart, 2015
                                    Version 2024.1 linked Wed Jan 31 11:42:09 2024


 **********************************************************************************************************************************
 LABEL *                                                                                                                                                                 
  (6 PROC) 64 bit serial version                                                         DATE: 30-Sep-24          TIME: 10:35:03  
 **********************************************************************************************************************************

 SHA1:             675817fde4514a4a933b69e420913a90cee4ef91
 **********************************************************************************************************************************

 Memory per process:        32 MW
 Total memory per node:     32 MW

 GA preallocation disabled
 GA check disabled

 Variable memory set to 32.0 MW

 ZCENTRE=MASS


 Geometry recognized as XYZ



 Using masses of most abundant isotopes

 **********************************************************************************************************************************
 SETTING BASIS          =    6-311G(D,P)


 Recomputing integrals since basis changed


 Using spherical harmonics

 Library entry C      S 6-311G               selected for orbital group  1
 Library entry C      P 6-311G               selected for orbital group  1
 Library entry C      D 6-311G*              selected for orbital group  1
 Library entry CL     S 6-311G               selected for orbital group  2
 Library entry CL     P 6-311G               selected for orbital group  2
 Library entry CL     D 6-311G*              selected for orbital group  2
 Library entry H      S 6-311G               selected for orbital group  3
 Library entry H      P 6-311G**             selected for orbital group  3


 PROGRAM * SEWARD (Integral evaluation for generally contracted gaussian basis sets)     Author: Roland Lindh, 1990

 Geometry written to block  1 of record 700

 Orientation using atomic masses  
 Molecule type: Symmetric top,     Order of principal axis = 1
 Rotational constants:      13.3681747     13.3681754    157.7654620 GHz

 Point group  C1  



 ATOMIC COORDINATES

 NR  ATOM    CHARGE       X              Y              Z

   1  C       6.00   -0.000000000    0.000000000   -2.309016919
   2  CL     17.00   -0.000000000    0.000000000    1.049668911
   3  H       1.00    0.972564997   -1.684530974   -2.975884261
   4  H       1.00   -1.945128237    0.000000000   -2.975884261
   5  H       1.00    0.972563240    1.684530974   -2.975884261

 Bond lengths in Bohr (Angstrom)

 1-2  3.358685830  1-3  2.056268301  1-4  2.056267470  1-5  2.056267470
     ( 1.777340000)     ( 1.088130324)     ( 1.088129885)     ( 1.088129885)

 Bond angles

  2-1-3  108.92374643   2-1-4  108.92375437   2-1-5  108.92375437   3-1-4  110.01311085

  3-1-5  110.01311085   4-1-5  110.01307001

 NUCLEAR CHARGE:                   26
 NUMBER OF PRIMITIVE AOS:         105
 NUMBER OF SYMMETRY AOS:          103
 NUMBER OF CONTRACTIONS:           62   (   62A   )
 NUMBER OF INNER CORE ORBITALS:     1   (    1A   )
 NUMBER OF OUTER CORE ORBITALS:     5   (    5A   )
 NUMBER OF VALENCE ORBITALS:       11   (   11A   )


 NUCLEAR REPULSION ENERGY   51.42039764


 Eigenvalues of metric

         1 0.109E-01 0.228E-01 0.228E-01 0.266E-01 0.287E-01 0.287E-01 0.302E-01 0.468E-01


 Contracted 2-electron integrals neglected if value below      1.0D-11
 AO integral compression algorithm  1   Integral accuracy      1.0D-11

     7.340 MB (compressed) written to integral file ( 35.5%)


 NUMBER OF SORTED TWO-ELECTRON INTEGRALS:    1908081.     BUFFER LENGTH:  32768
 NUMBER OF SEGMENTS:   1  SEGMENT LENGTH:    1908081      RECORD LENGTH: 524288

 Memory used in sort:       2.47 MW

 SORT1 READ     2520226. AND WROTE     1319935. INTEGRALS IN      4 RECORDS. CPU TIME:     0.02 SEC, REAL TIME:     0.03 SEC
 SORT2 READ     1319935. AND WROTE     1908081. INTEGRALS IN     28 RECORDS. CPU TIME:     0.06 SEC, REAL TIME:     0.06 SEC

 FILE SIZES:   FILE 1:    37.5 MBYTE,  FILE 4:    16.8 MBYTE,   TOTAL:     54.4 MBYTE

 OPERATOR DM      FOR CENTER  0  COORDINATES:    0.000000    0.000000    0.000000


 **********************************************************************************************************************************
 DATASETS  * FILE   NREC   LENGTH (MB)   RECORD NAMES
              1      19       34.13       500      610      700      900      950      970     1000      129      960     1100   
                                          VAR    BASINP    GEOM    SYMINP    ZMAT    AOBASIS   BASIS     P2S    ABASIS      S 
                                         1400     1410     1200     1210     1080     1600     1650     1300     1700   
                                           T        V       H0       H01     AOSYM     SMH    MOLCAS    ERIS     OPER   

 PROGRAMS   *        TOTAL       INT
 CPU TIMES  *         0.41      0.30
 REAL TIME  *         0.49 SEC
 DISK USED  *        52.26 MB
 **********************************************************************************************************************************


 Program * Restricted Hartree-Fock

 Orbital guess generated from atomic densities.

 Initial occupancy:  13

 NELEC=   26   SYM=1   MS2= 0   THRE=1.0D-08   THRD=1.0D-06   THRG=1.0D-06  HFMA2=F  DIIS_START=2   DIIS_MAX=10   DIIS_INCORE=F

 Level shifts:    0.00 (CLOSED)    0.00 (OPEN)    0.30 (GAP_MIN)

 ITER           ETOT              DE          GRAD        DDIFF     DIIS  NEXP   TIME(IT)  TIME(TOT)  DIAG
   1     -499.11232246    -499.11232246     0.00D+00     0.15D+00     0     0       0.01      0.03    start
   2     -499.12830958      -0.01598712     0.44D-02     0.49D-02     1     0       0.01      0.04    diag
   3     -499.13018651      -0.00187693     0.16D-02     0.13D-02     2     0       0.01      0.05    diag
   4     -499.13047891      -0.00029240     0.56D-03     0.62D-03     3     0       0.01      0.06    diag
   5     -499.13048848      -0.00000957     0.83D-04     0.14D-03     4     0       0.02      0.08    diag
   6     -499.13048879      -0.00000031     0.16D-04     0.28D-04     5     0       0.01      0.09    diag
   7     -499.13048880      -0.00000001     0.27D-05     0.45D-05     6     0       0.01      0.10    diag
   8     -499.13048880      -0.00000000     0.77D-06     0.15D-05     7     0       0.01      0.11    fixocc
   9     -499.13048880      -0.00000000     0.24D-06     0.52D-06     8     0       0.01      0.12    diag
  10     -499.13048880      -0.00000000     0.48D-07     0.64D-07     0     0       0.01      0.13    diag/orth

 Final occupancy:  13

 !RHF STATE 1.1 Energy               -499.130488797800
  RHF One-electron energy            -790.211591932692
  RHF Two-electron energy             239.660705490500
  RHF Kinetic energy                  499.122614822403
  RHF Nuclear energy                   51.420397644392
  RHF Virial quotient                  -1.000015775633

 !RHF STATE 1.1 Dipole moment          -0.00000007     0.00000012    -0.88683390
 Dipole moment /Debye                  -0.00000018     0.00000031    -2.25410695

 Orbital energies:

           1.1          2.1          3.1          4.1          5.1          6.1          7.1          8.1          9.1         10.1
   -104.826157   -11.294296   -10.552560    -8.020829    -8.017906    -8.017906    -1.132876    -0.917644    -0.620104    -0.620104

          11.1         12.1         13.1         14.1         15.1
     -0.550332    -0.437191    -0.437191     0.141928     0.200189


 HOMO     13.1    -0.437191 =     -11.8966eV
 LUMO     14.1     0.141928 =       3.8620eV
 LUMO-HOMO         0.579119 =      15.7586eV

 Orbitals saved in record  2100.2


 **********************************************************************************************************************************
 DATASETS  * FILE   NREC   LENGTH (MB)   RECORD NAMES
              1      19       34.13       500      610      700      900      950      970     1000      129      960     1100   
                                          VAR    BASINP    GEOM    SYMINP    ZMAT    AOBASIS   BASIS     P2S    ABASIS      S 
                                         1400     1410     1200     1210     1080     1600     1650     1300     1700   
                                           T        V       H0       H01     AOSYM     SMH    MOLCAS    ERIS     OPER   

              2       4        0.51       700     1000      520     2100   
                                         GEOM     BASIS   MCVARS     RHF  

 PROGRAMS   *        TOTAL    HF-SCF       INT
 CPU TIMES  *         0.54      0.13      0.30
 REAL TIME  *         0.63 SEC
 DISK USED  *        52.26 MB
 **********************************************************************************************************************************


 PROGRAM * OPT (Geometry optimization)     Authors: F. Eckert and H.-J. Werner


 BFGS update of hessian

 *** Long output written to logfile /home/lme/Theoretische_Chemie/Nomodeco/deuterium_calculations/CH3Cl/CH3Cl.molpro/run/CH3Cl_1.molpro/CH3Cl_1.log ***


 Geometry optimization using default procedure for command HF-SCF

 Geometry written to block  1 of record 700

 PQS Optimization using delocalized internal coordinates

 Point group c3v. Number of degrees of freedom:    3

 ITER.   ENERGY(OLD)    ENERGY(NEW)      DE          GRADMAX     GRADNORM    GRADRMS     STEPMAX     STEPLEN     STEPRMS   CPU-time
   1  -499.13048880  -499.13075976    -0.00027097  0.00882924  0.01274981  0.00736110  0.03352289  0.04108475  0.02372029      0.84
   2  -499.13075976  -499.13077707    -0.00001731  0.00195201  0.00239494  0.00138272  0.01146529  0.01236785  0.00714058      1.70
   3  -499.13077707  -499.13077844    -0.00000137  0.00058842  0.00073146  0.00042231  0.00346264  0.00407856  0.00235476      2.55
   4  -499.13077844  -499.13077844    -0.00000000  0.00003601  0.00003611  0.00002085  0.00018467  0.00019455  0.00011232      3.34

 END OF GEOMETRY OPTIMIZATION.

 Geometry written to block  1 of record 700

 Recomputing wavefunction for reoriented structure

 Current geometry (xyz format, in Angstrom)

    5
 HF-SCF000/6-311G(D,P)  ENERGY=-499.13077844
 C          0.0000000000        0.0000000000       -1.2314781422
 Cl         0.0000000000        0.0000000000        0.5581289869
 H          0.5121049680       -0.8869918234       -1.5675311076
 H         -1.0242099361        0.0000000000       -1.5675311076
 H          0.5121049680        0.8869918234       -1.5675311076

 **********************************************************************************************************************************


 **********************************************************************************************************************************
 DATASETS  * FILE   NREC   LENGTH (MB)   RECORD NAMES
              1      19       34.14       500      610      700      900      950      970     1000      129      960     1100   
                                          VAR    BASINP    GEOM    SYMINP    ZMAT    AOBASIS   BASIS     P2S    ABASIS      S 
                                         1400     1410     1200     1210     1080     1600     1650     1300     1700   
                                           T        V       H0       H01     AOSYM     SMH    MOLCAS    ERIS     OPER   

              2       4        0.51       700     1000      520     2100   
                                         GEOM     BASIS   MCVARS     RHF  

 PROGRAMS   *        TOTAL      OPTG    HF-SCF       INT
 CPU TIMES  *         4.14      3.59      0.13      0.30
 REAL TIME  *         4.47 SEC
 DISK USED  *        52.69 MB
 **********************************************************************************************************************************


 PROGRAM * HESSIAN

 PROGRAM * MCKINLEY (Hessian of the energy)     Author: A. Bernhardsson, R. Lindh

 Orbitals from record         2100.2

 Number of closed-shell orbitals: 13 ( 13 )
 Number of occupied orbitals:     13 ( 13 )

 Number of electrons= 26     Singlet     Space symmetry=1      Wavefunction type: CLOSED          


 McKinley needed      2.88 seconds of CPU time

 Entering CPHF calculation

 CPHF needed 112 iterations for 15 perturbations.  Total CPU time:    1.65 sec


 HF-SCF hessian saved to record  5300.2

 PROGRAM * FREQUENCIES (Calculation of harmonic vibrational spectra for HF-SCF)


 Permanent Dipole Moment [debye]
     1-   3    0.000000    0.000000    0.000000

 Dipole Moment Norm    0.0000000 [debye]

 Dipole Moment Derivatives [debye/ang]
              1             2             3             4             5             6             7             8
    1    0.00000000    0.00000000    0.00000000    0.00000000    0.00000000    0.00000000    0.00000000    0.00000000
    2    0.00000000    0.00000000    0.00000000    0.00000000    0.00000000    0.00000000    0.00000000    0.00000000
    3    0.00000000    0.00000000    0.00000000    0.00000000    0.00000000    0.00000000    0.00000000    0.00000000
              9            10            11            12            13            14            15
    1    0.00000000    0.00000000    0.00000000    0.00000000    0.00000000    0.00000000    0.00000000
    2    0.00000000    0.00000000    0.00000000    0.00000000    0.00000000    0.00000000    0.00000000
    3    0.00000000    0.00000000    0.00000000    0.00000000    0.00000000    0.00000000    0.00000000

 Projecting out rotations and translations

 Force Constants (Second Derivatives of the Energy) in [a.u.]
                             CX1         CY1         CZ1         CLX2        CLY2    
           CX1           0.6394279
           CY1           0.0000000   0.6394279
           CZ1          -0.0000000  -0.0000000   0.3853601
           CLX2         -0.0386913  -0.0000000   0.0000000   0.0249005
           CLY2         -0.0000000  -0.0386913   0.0000000  -0.0000000   0.0249005
           CLZ2          0.0000000   0.0000000  -0.1617411  -0.0000000  -0.0000000
           HX3          -0.1309713   0.1199865   0.0431897   0.0029334  -0.0028813
           HY3           0.1199865  -0.2695198  -0.0748067  -0.0028813   0.0062605
           HZ3           0.0431673  -0.0747679  -0.0745397   0.0129946  -0.0225074
           HX4          -0.3387940  -0.0000000  -0.0863793   0.0079240   0.0000000
           HY4          -0.0000000  -0.0616971  -0.0000000  -0.0000000   0.0012698
           HZ4          -0.0863346  -0.0000000  -0.0745397  -0.0259893   0.0000000
           HX5          -0.1309713  -0.1199865   0.0431897   0.0029334   0.0028813
           HY5          -0.1199865  -0.2695198   0.0748067   0.0028813   0.0062605
           HZ5           0.0431673   0.0747679  -0.0745397   0.0129946   0.0225074
                             CLZ2        HX3         HY3         HZ3         HX4     
           CLZ2          0.2426163
           HX3          -0.0017983   0.1292072
           HY3           0.0031147  -0.1308561   0.2803068
           HZ3          -0.0269584  -0.0453691   0.0785816   0.0886765
           HX4           0.0035965  -0.0124933  -0.0015230  -0.0039777   0.3558566
           HY4          -0.0000000   0.0290248   0.0033849   0.0101660   0.0000000
           HZ4          -0.0269584   0.0107928   0.0016382   0.0064108   0.0907382
           HX5          -0.0017983   0.0113240   0.0152739  -0.0068151  -0.0124933
           HY5          -0.0031147  -0.0152739  -0.0204324   0.0085278   0.0015230
           HZ5          -0.0269584  -0.0068151  -0.0085278   0.0064108  -0.0039777
                             HY4         HZ4         HX5         HY5         HZ5     
           HY4           0.0536574
           HZ4           0.0000000   0.0886765
           HX5          -0.0290248   0.0107928   0.1292072
           HY5           0.0033849  -0.0016382   0.1308561   0.2803068
           HZ5          -0.0101660   0.0064108  -0.0453691  -0.0785816   0.0886765


 Atomic Masses
     1-   5   12.000000   34.968850    1.007825    1.007825    1.007825

 Mass weighted Second Derivative Matrix
                             CX1         CY1         CZ1         CLX2        CLY2    
           CX1           0.0532857
           CY1           0.0000000   0.0532857
           CZ1          -0.0000000  -0.0000000   0.0321133
           CLX2         -0.0018888  -0.0000000   0.0000000   0.0007121
           CLY2         -0.0000000  -0.0018888   0.0000000  -0.0000000   0.0007121
           CLZ2          0.0000000   0.0000000  -0.0078957  -0.0000000  -0.0000000
           HX3          -0.0376611   0.0345024   0.0124193   0.0004941  -0.0004854
           HY3           0.0345024  -0.0775010  -0.0215108  -0.0004854   0.0010546
           HZ3           0.0124129  -0.0214997  -0.0214341   0.0021889  -0.0037913
           HX4          -0.0974210  -0.0000000  -0.0248386   0.0013348   0.0000000
           HY4          -0.0000000  -0.0177411  -0.0000000  -0.0000000   0.0002139
           HZ4          -0.0248257  -0.0000000  -0.0214341  -0.0043779   0.0000000
           HX5          -0.0376611  -0.0345024   0.0124193   0.0004941   0.0004854
           HY5          -0.0345024  -0.0775010   0.0215108   0.0004854   0.0010546
           HZ5           0.0124129   0.0214997  -0.0214341   0.0021889   0.0037913
                             CLZ2        HX3         HY3         HZ3         HX4     
           CLZ2          0.0069381
           HX3          -0.0003029   0.1282040
           HY3           0.0005247  -0.1298401   0.2781304
           HZ3          -0.0045411  -0.0450169   0.0779715   0.0879880
           HX4           0.0006058  -0.0123963  -0.0015111  -0.0039468   0.3530936
           HY4          -0.0000000   0.0287995   0.0033586   0.0100870   0.0000000
           HZ4          -0.0045411   0.0107090   0.0016255   0.0063610   0.0900337
           HX5          -0.0003029   0.0112361   0.0151553  -0.0067622  -0.0123963
           HY5          -0.0005247  -0.0151553  -0.0202737   0.0084616   0.0015111
           HZ5          -0.0045411  -0.0067622  -0.0084616   0.0063610  -0.0039468
                             HY4         HZ4         HX5         HY5         HZ5     
           HY4           0.0532408
           HZ4           0.0000000   0.0879880
           HX5          -0.0287995   0.0107090   0.1282040
           HY5           0.0033586  -0.0016255   0.1298401   0.2781304
           HZ5          -0.0100870   0.0063610  -0.0450169  -0.0779715   0.0879880


 Mass Weighted 2nd Derivative Matrix Eigenvalues
     1-  10    0.000000    0.000000    0.000000    0.000000    0.000000    0.000000    0.022390    0.047532    0.047532    0.086364
    11-  15    0.096739    0.096739    0.393880    0.419419    0.419419

 Mass Weighted 2nd Derivative Matrix Eigenvectors
              1             2             3             4             5             6             7             8
    1   -0.02720080   -0.00951344   -0.00452475    0.05435224   -0.02300443    0.84455374    0.00000000    0.00000280
    2    0.79395547    0.13864580   -0.06538029   -0.14412551    0.20307848    0.04158959    0.00000000    0.36439810
    3   -0.08646771    0.45230285   -0.10634777   -0.10214927   -0.07873963    0.00616947    0.78786911    0.00000000
    4    0.06193464    0.26204356    0.94255258    0.14711989   -0.02292648    0.04759320    0.00000000   -0.00000092
    5   -0.19659470    0.15245899   -0.02877047    0.13969207    0.95024273    0.01212465    0.00000000   -0.11981757
    6   -0.14760600    0.77211035   -0.18154255   -0.17437544   -0.13441367    0.01053169   -0.54519913    0.00000000
    7   -0.09217403   -0.09733796    0.07095735   -0.45505920    0.06153191    0.31823678   -0.00940774   -0.05770748
    8    0.23289280   -0.00661980    0.03762624   -0.32488687    0.07928671    0.03069600    0.01629469   -0.15055838
    9   -0.16090566    0.11047324   -0.07001365    0.00021287    0.02717319    0.06455978    0.16427427    0.60749568
   10   -0.01133750   -0.01162837   -0.03160496    0.01401921   -0.00718775    0.28919639    0.01881549   -0.00000090
   11    0.37290576    0.14183358   -0.14001689    0.48758077   -0.03973924   -0.01960345    0.00000000   -0.25050734
   12   -0.01452960    0.15811621    0.06150812   -0.02432376   -0.02123101   -0.13366293    0.16427427    0.00000538
   13    0.06949902    0.07408123   -0.13416727    0.48309762   -0.07590742    0.26015599   -0.00940774    0.05770415
   14    0.23289280   -0.00661980    0.03762624   -0.32488687    0.07928671    0.03069600   -0.01629469   -0.15055750
   15    0.10025962    0.12464588   -0.08395398   -0.06469840   -0.07439898    0.07446693    0.16427427   -0.60750106
              9            10            11            12            13            14            15
    1    0.36439809    0.00000001   -0.00000137   -0.22110286   -0.00000001   -0.31736777   -0.00000414
    2   -0.00000280    0.00000000   -0.22110286    0.00000137    0.00000000    0.00000414   -0.31736777
    3    0.00000000   -0.34509965    0.00000000   -0.00000003   -0.14188603    0.00000000    0.00000000
    4   -0.11981757    0.00000000   -0.00000011   -0.01728503    0.00000000    0.00137624    0.00000002
    5    0.00000092    0.00000000   -0.01728503    0.00000011    0.00000000   -0.00000002    0.00137624
    6    0.00000000   -0.05721409    0.00000000    0.00000000   -0.00029951    0.00000000    0.00000000
    7   -0.21719042    0.09108047    0.37399180    0.50417352   -0.27376845    0.17365951   -0.32680426
    8   -0.05770466   -0.15775609    0.07233320    0.37398823    0.47418086   -0.32681373    0.55101464
    9   -0.35074401    0.50927561    0.26652729   -0.15388175    0.16378668   -0.11416719    0.19773740
   10   -0.11724148   -0.18216100   -0.00000089   -0.14359159    0.54753696    0.73970071    0.00000964
   11    0.00000192    0.00000000    0.72009830   -0.00000445    0.00000000    0.00000020   -0.01502659
   12    0.70147871    0.50927555    0.00000190    0.30776033    0.16378670    0.22832920    0.00000298
   13   -0.21719131    0.09108047   -0.37398557    0.50417815   -0.27376845    0.17365099    0.32680879
   14    0.05770697    0.15775609    0.07232858   -0.37398912   -0.47418086    0.32679936    0.55102316
   15   -0.35073468    0.50927561   -0.26652919   -0.15387846    0.16378668   -0.11416203   -0.19774038

   Low Vibration      Wavenumber
        Nr             [1/cm] 
        1                0.00
        2                0.00
        3                0.00
        4                0.00
        5                0.00
        6                0.00

     Vibration        Wavenumber
        Nr             [1/cm] 
        1              769.19
        2             1120.72
        3             1120.72
        4             1510.67
        5             1598.84
        6             1598.84
        7             3226.16
        8             3329.11
        9             3329.11

 FREQUENCIES * CALCULATION OF NORMAL MODES FOR HF-SCF


 Atomic Coordinates

  Nr  Atom  Charge       X              Y              Z

   1   C     6.00    0.000000000    0.000000000   -2.327156417
   2   CL   17.00    0.000000000    0.000000000    1.054710927
   3   H     1.00    0.967738137   -1.676171621   -2.962204485
   4   H     1.00   -1.935476273    0.000000000   -2.962204485
   5   H     1.00    0.967738137    1.676171621   -2.962204485

 Gradient norm at reference geometry: 0.30172D-04

 Normal Modes

                              1 A`        2 A``       3 A`        4 A`        5 A``
 Wavenumbers [cm-1]          769.19     1120.72     1120.72     1510.67     1598.84
 Intensities [km/mol]          0.00        0.00        0.00        0.00        0.00
 Intensities [relative]        0.00        0.00        0.00        0.00        0.00
           CX1              0.00000     0.00000     0.10519     0.00000    -0.00000
           CY1              0.00000     0.10519    -0.00000     0.00000    -0.06383
           CZ1              0.22744    -0.00000    -0.00000    -0.09962    -0.00000
           CLX2            -0.00000    -0.00000    -0.02026     0.00000    -0.00000
           CLY2            -0.00000    -0.02026     0.00000     0.00000    -0.00292
           CLZ2            -0.09220     0.00000     0.00000    -0.00968    -0.00000
           HX3             -0.00937    -0.05748    -0.21635     0.09073     0.37254
           HY3              0.01623    -0.14997    -0.05748    -0.15714     0.07205
           HZ3              0.16364     0.60513    -0.34938     0.50729     0.26549
           HX4              0.01874    -0.00000    -0.11679    -0.18145    -0.00000
           HY4             -0.00000    -0.24953     0.00000    -0.00000     0.71730
           HZ4              0.16364     0.00001     0.69875     0.50729     0.00000
           HX5             -0.00937     0.05748    -0.21635     0.09073    -0.37253
           HY5             -0.01623    -0.14997     0.05748     0.15714     0.07205
           HZ5              0.16364    -0.60514    -0.34937     0.50729    -0.26549

                              6 A`        7 A`        8 A`        9 A``
 Wavenumbers [cm-1]         1598.84     3226.16     3329.11     3329.11
 Intensities [km/mol]          0.00        0.00        0.00        0.00
 Intensities [relative]        0.00        0.00        0.00        0.00
           CX1             -0.06383    -0.00000    -0.09162    -0.00000
           CY1              0.00000     0.00000     0.00000    -0.09162
           CZ1             -0.00000    -0.04096     0.00000     0.00000
           CLX2            -0.00292    -0.00000     0.00023     0.00000
           CLY2             0.00000    -0.00000    -0.00000     0.00023
           CLZ2            -0.00000    -0.00005    -0.00000    -0.00000
           HX3              0.50221    -0.27270     0.17298    -0.32553
           HY3              0.37253     0.47234    -0.32554     0.54887
           HZ3             -0.15328     0.16315    -0.11372     0.19697
           HX4             -0.14303     0.54541     0.73682     0.00001
           HY4             -0.00000     0.00000     0.00000    -0.01497
           HZ4              0.30656     0.16315     0.22744     0.00000
           HX5              0.50222    -0.27270     0.17298     0.32554
           HY5             -0.37253    -0.47234     0.32553     0.54888
           HZ5             -0.15328     0.16315    -0.11372    -0.19697


 Normal Modes of low/zero frequencies

                                  1           2           3           4           5
 Wavenumbers [cm-1]            0.00        0.00        0.00        0.00        0.00
 Intensities [km/mol]          0.00        0.00        0.00        0.00        0.00
 Intensities [relative]        0.00        0.00        0.00        0.00        0.00
           CX1             -0.00785    -0.00275    -0.00131     0.01569    -0.00664
           CY1              0.22920     0.04002    -0.01887    -0.04161     0.05862
           CZ1             -0.02496     0.13057    -0.03070    -0.02949    -0.02273
           CLX2             0.01047     0.04431     0.15939     0.02488    -0.00388
           CLY2            -0.03325     0.02578    -0.00487     0.02362     0.16069
           CLZ2            -0.02496     0.13057    -0.03070    -0.02949    -0.02273
           HX3             -0.09182    -0.09696     0.07068    -0.45329     0.06129
           HY3              0.23199    -0.00659     0.03748    -0.32362     0.07898
           HZ3             -0.16028     0.11004    -0.06974     0.00021     0.02707
           HX4             -0.01129    -0.01158    -0.03148     0.01396    -0.00716
           HY4              0.37146     0.14128    -0.13947     0.48568    -0.03958
           HZ4             -0.01447     0.15750     0.06127    -0.02423    -0.02115
           HX5              0.06923     0.07379    -0.13365     0.48122    -0.07561
           HY5              0.23199    -0.00659     0.03748    -0.32362     0.07898
           HZ5              0.09987     0.12416    -0.08363    -0.06445    -0.07411

                                  6
 Wavenumbers [cm-1]            0.00
 Intensities [km/mol]          0.00
 Intensities [relative]        0.00
           CX1              0.24380
           CY1              0.01201
           CZ1              0.00178
           CLX2             0.00805
           CLY2             0.00205
           CLZ2             0.00178
           HX3              0.31700
           HY3              0.03058
           HZ3              0.06431
           HX4              0.28807
           HY4             -0.01953
           HZ4             -0.13314
           HX5              0.25914
           HY5              0.03058
           HZ5              0.07418


 Frequencies dumped to record   5400.2
 Frequency information read from record  5400.2

 Zero point energy:  0.04010343 [H]     8801.69 [1/CM]      105.29 [KJ/MOL]


 **********************************************************************************************************************************
 DATASETS  * FILE   NREC   LENGTH (MB)   RECORD NAMES
              1      19       34.14       500      610      700      900      950      970     1000      129      960     1100   
                                          VAR    BASINP    GEOM    SYMINP    ZMAT    AOBASIS   BASIS     P2S    ABASIS      S 
                                         1400     1410     1200     1210     1080     1600     1650     1300     1700   
                                           T        V       H0       H01     AOSYM     SMH    MOLCAS    ERIS     OPER   

              2       7        0.56       700     1000      520     2100     5300     5450     5400   
                                         GEOM     BASIS   MCVARS     RHF     HESS     NMOD     FREQ   

              4       5        1.00      4100     4000     4200     4300     4400   

 PROGRAMS   *        TOTAL      FREQ      OPTG    HF-SCF       INT
 CPU TIMES  *         8.69      4.55      3.59      0.13      0.30
 REAL TIME  *         9.16 SEC
 DISK USED  *        52.69 MB
 **********************************************************************************************************************************

 Dump information in style MOLDEN to ch3cl.molden                                                                    

 Molecular orbitals read from record     2100.2  Type=RHF/CANONICAL  
 Occupation numbers read from record     2100.2  Type=RHF/RHF  
 Orbital energies read from record       2100.2  Type=RHF/CANONICAL  
 Redundancy group numbers read from rec  2100.2  Type=RHF/RHF  

 DUMP ORBITAL  1.1 AS ORBITAL    1  occ=    2.0000  eig= -104.8250  GROUP=   2
 DUMP ORBITAL  2.1 AS ORBITAL    2  occ=    2.0000  eig=  -11.2927  GROUP=   2
 DUMP ORBITAL  3.1 AS ORBITAL    3  occ=    2.0000  eig=  -10.5513  GROUP=   2
 DUMP ORBITAL  4.1 AS ORBITAL    4  occ=    2.0000  eig=   -8.0195  GROUP=   2
 DUMP ORBITAL  5.1 AS ORBITAL    5  occ=    2.0000  eig=   -8.0166  GROUP=   2
 DUMP ORBITAL  6.1 AS ORBITAL    6  occ=    2.0000  eig=   -8.0166  GROUP=   2
 DUMP ORBITAL  7.1 AS ORBITAL    7  occ=    2.0000  eig=   -1.1303  GROUP=   2
 DUMP ORBITAL  8.1 AS ORBITAL    8  occ=    2.0000  eig=   -0.9213  GROUP=   2
 DUMP ORBITAL  9.1 AS ORBITAL    9  occ=    2.0000  eig=   -0.6243  GROUP=   2
 DUMP ORBITAL 10.1 AS ORBITAL   10  occ=    2.0000  eig=   -0.6243  GROUP=   2
 DUMP ORBITAL 11.1 AS ORBITAL   11  occ=    2.0000  eig=   -0.5462  GROUP=   2
 DUMP ORBITAL 12.1 AS ORBITAL   12  occ=    2.0000  eig=   -0.4373  GROUP=   2
 DUMP ORBITAL 13.1 AS ORBITAL   13  occ=    2.0000  eig=   -0.4373  GROUP=   2

 Total charge:      26.000000
 Frequency information read from record  5400.2

 **********************************************************************************************************************************

 HF/6-311G(D,P)//HF/6-311G(D,P) energy=   -499.130778443348

    OPTG(HF-SCF)          HF-SCF
   -499.13077844   -499.13048880
 **********************************************************************************************************************************
 Molpro calculation terminated
