
 Working directory              : /tmp/lme/molpro.H9OjsyNRuk/
 Global scratch directory       : /tmp/lme/molpro.H9OjsyNRuk/
 Wavefunction directory         : /home/lme/wfu/
 Main file repository           : /tmp/lme/molpro.H9OjsyNRuk/

 id        : liedlgroup

 Nodes     nprocs
 sv1-c724     1
 GA implementation: MPI file
 GA implementation (serial work in mppx): MPI file

 Using customized tuning parameters: mindgm=1; mindgv=20; mindgc=4; mindgr=1; noblas=0; minvec=7
 default implementation of scratch files=df  


 Variables initialized (1042), CPU time= 0.00 sec
 
            orient,mass
            geometry=initial.xyz
 Including file /home/lme/Theoretische_Chemie/Nomodeco/metric_comparison/rmat/CH3COOH.molpro/run/CH3COOH_1.molpro/initial.xyz
            mass, iso
            basis=6-311g(d,p)
            {hf
            start, atden}
            optg;
            {frequencies, symm=auto, print=0, analytical}
            put, molden, CH3COOH.molden
 Commands initialized (847), CPU time= 0.01 sec, 718 directives.
 Default parameters read. Elapsed time= 0.06 sec

 Checking input...
 Passed
1


                                         ***  PROGRAM SYSTEM MOLPRO  ***
                                       Copyright, TTI GmbH Stuttgart, 2015
                                    Version 2024.1 linked Wed Jan 31 11:42:09 2024


 **********************************************************************************************************************************
 LABEL *                                                                                                                                                                 
  (6 PROC) 64 bit serial version                                                         DATE: 26-Sep-24          TIME: 13:52:42  
 **********************************************************************************************************************************

 SHA1:             675817fde4514a4a933b69e420913a90cee4ef91
 **********************************************************************************************************************************

 Memory per process:        32 MW
 Total memory per node:     32 MW

 GA preallocation disabled
 GA check disabled

 Variable memory set to 32.0 MW

 ZCENTRE=MASS


 Geometry recognized as XYZ



 Using masses of most abundant isotopes

 **********************************************************************************************************************************
 SETTING BASIS          =    6-311G(D,P)


 Recomputing integrals since basis changed


 Using spherical harmonics

 Library entry C      S 6-311G               selected for orbital group  1
 Library entry C      P 6-311G               selected for orbital group  1
 Library entry C      D 6-311G*              selected for orbital group  1
 Library entry O      S 6-311G               selected for orbital group  2
 Library entry O      P 6-311G               selected for orbital group  2
 Library entry O      D 6-311G*              selected for orbital group  2
 Library entry H      S 6-311G               selected for orbital group  3
 Library entry H      P 6-311G**             selected for orbital group  3


 PROGRAM * SEWARD (Integral evaluation for generally contracted gaussian basis sets)     Author: Roland Lindh, 1990

 Geometry written to block  1 of record 700

 Orientation using atomic masses  
 Molecule type: Asymmetric top
 Symmetry elements: Y
 Rotational constants:       9.4824397      5.3022005     11.1926156 GHz

 Point group  Cs  



 ATOMIC COORDINATES

 NR  ATOM    CHARGE       X              Y              Z

   1  C       6.00    0.190676773    0.000000000   -0.076112808
   2  O       8.00    2.126984547    0.000000000   -1.316821608
   3  O       8.00   -2.145433837    0.000000000   -1.153446494
   4  H       1.00   -1.844620722    0.000000000   -2.979257584
   5  C       6.00    0.003972033    0.000000000    2.752225533
   6  H       1.00    1.896334708    0.000000000    3.557386594
   7  H       1.00   -1.038280254    1.666260341    3.381395777
   8  H       1.00   -1.038280254   -1.666260341    3.381395777

 Bond lengths in Bohr (Angstrom)

 1-2  2.299705661  1-3  2.572559164  1-5  2.834494035  3-4  1.850425536  5-6  2.056531261
     ( 1.216951827)     ( 1.361339683)     ( 1.499949648)     ( 0.979203024)     ( 1.088269477)

 5-7  2.063629946  5-8  2.063629946
     ( 1.092025939)     ( 1.092025939)

 Bond angles

  1-3-4  105.40175469   1-5-6  109.27200725   1-5-7  109.72406365   1-5-8  109.72406365

  2-1-3  122.59234820   2-1-5  126.42686784   3-1-5  110.98078396   6-5-7  110.20457735

  6-5-8  110.20457735   7-5-8  107.69340288

 NUCLEAR CHARGE:                   32
 NUMBER OF PRIMITIVE AOS:         160
 NUMBER OF SYMMETRY AOS:          156
 NUMBER OF CONTRACTIONS:           96   (   68A'  +   28A"  )
 NUMBER OF INNER CORE ORBITALS:     0   (    0A'  +    0A"  )
 NUMBER OF OUTER CORE ORBITALS:     4   (    4A'  +    0A"  )
 NUMBER OF VALENCE ORBITALS:       20   (   15A'  +    5A"  )


 NUCLEAR REPULSION ENERGY  120.69328910


 Eigenvalues of metric

         1 0.294E-02 0.905E-02 0.101E-01 0.202E-01 0.233E-01 0.347E-01 0.375E-01 0.393E-01
         2 0.228E-01 0.406E-01 0.871E-01 0.127E+00 0.202E+00 0.209E+00 0.319E+00 0.341E+00


 Contracted 2-electron integrals neglected if value below      1.0D-11
 AO integral compression algorithm  1   Integral accuracy      1.0D-11

     24.117 MB (compressed) written to integral file ( 45.7%)


 NUMBER OF SORTED TWO-ELECTRON INTEGRALS:    5693080.     BUFFER LENGTH:  32768
 NUMBER OF SEGMENTS:   1  SEGMENT LENGTH:    5693080      RECORD LENGTH: 524288

 Memory used in sort:       6.25 MW

 SORT1 READ     6655334. AND WROTE     5150035. INTEGRALS IN     15 RECORDS. CPU TIME:     0.07 SEC, REAL TIME:     0.10 SEC
 SORT2 READ     5150035. AND WROTE     5693080. INTEGRALS IN     92 RECORDS. CPU TIME:     0.14 SEC, REAL TIME:     0.14 SEC

 FILE SIZES:   FILE 1:    54.5 MBYTE,  FILE 4:    63.0 MBYTE,   TOTAL:    117.5 MBYTE

 OPERATOR DM      FOR CENTER  0  COORDINATES:    0.000000    0.000000    0.000000


 **********************************************************************************************************************************
 DATASETS  * FILE   NREC   LENGTH (MB)   RECORD NAMES
              1      19       48.66       500      610      700      900      950      970     1000      129      960     1100   
                                          VAR    BASINP    GEOM    SYMINP    ZMAT    AOBASIS   BASIS     P2S    ABASIS      S 
                                         1400     1410     1200     1210     1080     1600     1650     1300     1700   
                                           T        V       H0       H01     AOSYM     SMH    MOLCAS    ERIS     OPER   

 PROGRAMS   *        TOTAL       INT
 CPU TIMES  *         1.02      0.92
 REAL TIME  *         1.12 SEC
 DISK USED  *       112.50 MB
 **********************************************************************************************************************************


 Program * Restricted Hartree-Fock

 Orbital guess generated from atomic densities.

 Initial occupancy:  13   3

 NELEC=   32   SYM=1   MS2= 0   THRE=1.0D-08   THRD=1.0D-06   THRG=1.0D-06  HFMA2=F  DIIS_START=2   DIIS_MAX=10   DIIS_INCORE=F

 Level shifts:    0.00 (CLOSED)    0.00 (OPEN)    0.30 (GAP_MIN)

 ITER           ETOT              DE          GRAD        DDIFF     DIIS  NEXP   TIME(IT)  TIME(TOT)  DIAG
   1     -227.76942234    -227.76942234     0.00D+00     0.63D-01     0     0       0.03      0.08    start
   2     -227.83414044      -0.06471810     0.12D-01     0.11D-01     1     0       0.03      0.11    diag
   3     -227.87120511      -0.03706467     0.84D-02     0.44D-02     2     0       0.03      0.14    diag
   4     -227.87285083      -0.00164572     0.12D-02     0.11D-02     3     0       0.03      0.17    diag
   5     -227.87314383      -0.00029300     0.52D-03     0.52D-03     4     0       0.03      0.20    diag
   6     -227.87318109      -0.00003726     0.15D-03     0.19D-03     5     0       0.02      0.22    diag
   7     -227.87318844      -0.00000736     0.61D-04     0.92D-04     6     0       0.03      0.25    diag
   8     -227.87318961      -0.00000116     0.24D-04     0.34D-04     7     0       0.03      0.28    fixocc
   9     -227.87318976      -0.00000016     0.80D-05     0.15D-04     8     0       0.03      0.31    diag
  10     -227.87318977      -0.00000001     0.16D-05     0.24D-05     9     0       0.03      0.34    diag/orth
  11     -227.87318977      -0.00000000     0.38D-06     0.43D-06     9     0       0.03      0.37    diag
  12     -227.87318977      -0.00000000     0.11D-06     0.11D-06     0     0       0.03      0.40    diag

 Final occupancy:  13   3

 !RHF STATE 1.1 Energy               -227.873189770403
  RHF One-electron energy            -550.864243175156
  RHF Two-electron energy             202.297764306453
  RHF Kinetic energy                  227.593754129524
  RHF Nuclear energy                  120.693289098300
  RHF Virial quotient                  -1.001227782555

 !RHF STATE 1.1 Dipole moment          -0.62332226     0.00000000     0.41555435
 Dipole moment /Debye                  -1.58432716     0.00000000     1.05623380

 Orbital energies:

           1.1          2.1          3.1          4.1          5.1          6.1          7.1          8.1          9.1         10.1
    -20.608649   -20.546132   -11.391835   -11.247774    -1.459703    -1.356082    -1.028416    -0.818223    -0.703253    -0.677769

          11.1         12.1         13.1         14.1         15.1
     -0.582597    -0.572651    -0.453575     0.148055     0.177049

           1.2          2.2          3.2          4.2          5.2
     -0.647668    -0.560591    -0.479453     0.168822     0.231636


 HOMO     13.1    -0.453575 =     -12.3424eV
 LUMO     14.1     0.148055 =       4.0288eV
 LUMO-HOMO         0.601630 =      16.3712eV

 Orbitals saved in record  2100.2


 **********************************************************************************************************************************
 DATASETS  * FILE   NREC   LENGTH (MB)   RECORD NAMES
              1      19       48.66       500      610      700      900      950      970     1000      129      960     1100   
                                          VAR    BASINP    GEOM    SYMINP    ZMAT    AOBASIS   BASIS     P2S    ABASIS      S 
                                         1400     1410     1200     1210     1080     1600     1650     1300     1700   
                                           T        V       H0       H01     AOSYM     SMH    MOLCAS    ERIS     OPER   

              2       4        0.59       700     1000      520     2100   
                                         GEOM     BASIS   MCVARS     RHF  

 PROGRAMS   *        TOTAL    HF-SCF       INT
 CPU TIMES  *         1.42      0.40      0.92
 REAL TIME  *         1.56 SEC
 DISK USED  *       112.50 MB
 **********************************************************************************************************************************


 PROGRAM * OPT (Geometry optimization)     Authors: F. Eckert and H.-J. Werner


 BFGS update of hessian

 *** Long output written to logfile /home/lme/Theoretische_Chemie/Nomodeco/metric_comparison/rmat/CH3COOH.molpro/run/CH3COOH_1.molpro/CH3COOH_1.log ***


 Geometry optimization using default procedure for command HF-SCF

 Geometry written to block  1 of record 700

 PQS Optimization using delocalized internal coordinates

 Point group cs. Number of degrees of freedom:   12

 ITER.   ENERGY(OLD)    ENERGY(NEW)      DE          GRADMAX     GRADNORM    GRADRMS     STEPMAX     STEPLEN     STEPRMS   CPU-time
   1  -227.87318977  -227.87782355    -0.00463378  0.05407240  0.08333760  0.02405749  0.07248861  0.12797635  0.03694359      2.86
   2  -227.87782355  -227.87795201    -0.00012846  0.00513399  0.01033602  0.00298375  0.01725796  0.03364453  0.00971234      5.76
   3  -227.87795201  -227.87796326    -0.00001125  0.00173143  0.00320599  0.00092549  0.00601212  0.00921532  0.00266023      8.68
   4  -227.87796326  -227.87796403    -0.00000077  0.00069093  0.00084363  0.00024353  0.00196996  0.00232338  0.00067070     11.59
   5  -227.87796403  -227.87796404    -0.00000002  0.00008087  0.00014408  0.00004159  0.00022514  0.00033047  0.00009540     14.44

 END OF GEOMETRY OPTIMIZATION.

 Geometry written to block  1 of record 700

 Recomputing wavefunction for reoriented structure

 Current geometry (xyz format, in Angstrom)

    8
 HF-SCF000/6-311G(D,P)  ENERGY=-227.87796404
 C          0.0999463365        0.0000000000       -0.0420277348
 O          1.1332030321        0.0000000000       -0.6145442515
 O         -1.0681644633        0.0000000000       -0.6799209052
 H         -0.8985500813        0.0000000000       -1.6103215090
 C         -0.0776892792        0.0000000000        1.4479206556
 H          0.8895833259        0.0000000000        1.9274954711
 H         -0.6441266198        0.8758542589        1.7435977386
 H         -0.6441266198       -0.8758542589        1.7435977386

 **********************************************************************************************************************************


 **********************************************************************************************************************************
 DATASETS  * FILE   NREC   LENGTH (MB)   RECORD NAMES
              1      19       48.87       500      610      700      900      950      970     1000      129      960     1100   
                                          VAR    BASINP    GEOM    SYMINP    ZMAT    AOBASIS   BASIS     P2S    ABASIS      S 
                                         1400     1410     1200     1210     1080     1600     1650     1300     1700   
                                           T        V       H0       H01     AOSYM     SMH    MOLCAS    ERIS     OPER   

              2       4        0.59       700     1000      520     2100   
                                         GEOM     BASIS   MCVARS     RHF  

 PROGRAMS   *        TOTAL      OPTG    HF-SCF       INT
 CPU TIMES  *        17.04     15.62      0.40      0.92
 REAL TIME  *        18.07 SEC
 DISK USED  *       113.26 MB
 **********************************************************************************************************************************


 PROGRAM * HESSIAN

 PROGRAM * MCKINLEY (Hessian of the energy)     Author: A. Bernhardsson, R. Lindh

 Orbitals from record         2100.2

 Number of closed-shell orbitals: 16 ( 13  3 )
 Number of occupied orbitals:     16 ( 13  3 )

 Number of electrons= 32     Singlet     Space symmetry=1      Wavefunction type: CLOSED          


 McKinley needed     19.54 seconds of CPU time

 Entering CPHF calculation

 CPHF needed 208 iterations for 24 perturbations.  Total CPU time:    6.27 sec


 HF-SCF hessian saved to record  5300.2

 PROGRAM * FREQUENCIES (Calculation of harmonic vibrational spectra for HF-SCF)


 Permanent Dipole Moment [debye]
     1-   3    0.000000    0.000000    0.000000

 Dipole Moment Norm    0.0000000 [debye]

 Dipole Moment Derivatives [debye/ang]
              1             2             3             4             5             6             7             8
    1    0.00000000    0.00000000    0.00000000    0.00000000    0.00000000    0.00000000    0.00000000    0.00000000
    2    0.00000000    0.00000000    0.00000000    0.00000000    0.00000000    0.00000000    0.00000000    0.00000000
    3    0.00000000    0.00000000    0.00000000    0.00000000    0.00000000    0.00000000    0.00000000    0.00000000
              9            10            11            12            13            14            15            16
    1    0.00000000    0.00000000    0.00000000    0.00000000    0.00000000    0.00000000    0.00000000    0.00000000
    2    0.00000000    0.00000000    0.00000000    0.00000000    0.00000000    0.00000000    0.00000000    0.00000000
    3    0.00000000    0.00000000    0.00000000    0.00000000    0.00000000    0.00000000    0.00000000    0.00000000
             17            18            19            20            21            22            23            24
    1    0.00000000    0.00000000    0.00000000    0.00000000    0.00000000    0.00000000    0.00000000    0.00000000
    2    0.00000000    0.00000000    0.00000000    0.00000000    0.00000000    0.00000000    0.00000000    0.00000000
    3    0.00000000    0.00000000    0.00000000    0.00000000    0.00000000    0.00000000    0.00000000    0.00000000

 Projecting out rotations and translations

 Force Constants (Second Derivatives of the Energy) in [a.u.]
                             CX1         CY1         CZ1         OX2         OY2     
           CX1           1.0588120
           CY1          -0.0000000   0.2876291
           CZ1          -0.2362537  -0.0000000   0.8673427
           OX2          -0.6969846   0.0000000   0.3464910   0.8369102
           OY2          -0.0000000  -0.0979325  -0.0000000  -0.0000000   0.0378053
           OZ2           0.3291913  -0.0000000  -0.3501927  -0.3787399   0.0000000
           OX3          -0.2735292   0.0000000  -0.0673046  -0.1338677   0.0000000
           OY3           0.0000000  -0.0818272   0.0000000  -0.0000000   0.0361450
           OZ3          -0.0982198  -0.0000000  -0.2174987   0.0012905  -0.0000000
           HX4           0.0154572   0.0000000  -0.0599410   0.0015841   0.0000000
           HY4          -0.0000000   0.0048855  -0.0000000  -0.0000000  -0.0066468
           HZ4          -0.0040186  -0.0000000  -0.0366710   0.0095834  -0.0000000
           CX5          -0.0957197  -0.0000000   0.0082465  -0.0121572   0.0000000
           CY5           0.0000000  -0.1135657  -0.0000000   0.0000000   0.0332256
           CZ5           0.0062549  -0.0000000  -0.2461823   0.0148884  -0.0000000
           HX6           0.0030777  -0.0000000   0.0054235   0.0023136   0.0000000
           HY6           0.0000000  -0.0027214   0.0000000  -0.0000000  -0.0006258
           HZ6          -0.0408356   0.0000000  -0.0114580   0.0026219  -0.0000000
           HX7          -0.0055567   0.0028040   0.0016691   0.0011008  -0.0008288
           HY7          -0.0001480   0.0017661   0.0020032  -0.0010757  -0.0009854
           HZ7           0.0219408  -0.0386232  -0.0026700   0.0019323   0.0059805
           HX8          -0.0055567  -0.0028040   0.0016691   0.0011008   0.0008288
           HY8           0.0001480   0.0017661  -0.0020032   0.0010757  -0.0009854
           HZ8           0.0219408   0.0386232  -0.0026700   0.0019323  -0.0059805
                             OZ2         OX3         OY3         OZ3         HX4     
           OZ2           0.3275238
           OX3          -0.0138952   0.4915883
           OY3           0.0000000  -0.0000000   0.0462892
           OZ3           0.0475641   0.0061832  -0.0000000   0.7780883
           HX4           0.0082451  -0.0856825  -0.0000000   0.1397631   0.0745994
           HY4           0.0000000  -0.0000000  -0.0182374  -0.0000000  -0.0000000
           HZ4           0.0045680   0.0823511  -0.0000000  -0.5667801  -0.0842032
           CX5           0.0504669   0.0000782  -0.0000000  -0.0475458  -0.0063201
           CY5          -0.0000000   0.0000000   0.0151076   0.0000000  -0.0000000
           CZ5          -0.0186030  -0.0045950  -0.0000000  -0.0315323  -0.0024864
           HX6           0.0001085   0.0013077  -0.0000000   0.0012970   0.0003875
           HY6          -0.0000000  -0.0000000   0.0015874   0.0000000  -0.0000000
           HZ6           0.0044009   0.0008273   0.0000000  -0.0105667  -0.0017914
           HX7           0.0023117   0.0000526  -0.0003654  -0.0013841  -0.0000128
           HY7           0.0005792  -0.0006913   0.0004677   0.0000143  -0.0001962
           HZ7          -0.0076305  -0.0017834   0.0032463   0.0003627   0.0002069
           HX8           0.0023117   0.0000526   0.0003654  -0.0013841  -0.0000128
           HY8          -0.0005792   0.0006913   0.0004677  -0.0000143   0.0001962
           HZ8          -0.0076305  -0.0017834  -0.0032463   0.0003627   0.0002069
                             HY4         HZ4         CX5         CY5         CZ5     
           HY4           0.0144634
           HZ4          -0.0000000   0.5974490
           CX5          -0.0000000  -0.0045807   0.6783230
           CY5           0.0044612   0.0000000  -0.0000000   0.5994349
           CZ5           0.0000000   0.0017240   0.0304396   0.0000000   0.5691094
           HX6           0.0000000   0.0003766  -0.2989577   0.0000000  -0.1218015
           HY6           0.0008000   0.0000000  -0.0000000  -0.0579958   0.0000000
           HZ6          -0.0000000  -0.0008535  -0.1104173  -0.0000000  -0.1155745
           HX7          -0.0002117   0.0002457  -0.1326233   0.1242239   0.0386500
           HY7           0.0001370  -0.0002221   0.1227359  -0.2403339  -0.0656074
           HZ7           0.0008380   0.0002818   0.0366954  -0.0656760  -0.0794707
           HX8           0.0002117   0.0002457  -0.1326233  -0.1242239   0.0386500
           HY8           0.0001370   0.0002221  -0.1227359  -0.2403339   0.0656074
           HZ8          -0.0008380   0.0002818   0.0366954   0.0656760  -0.0794707
                             HX6         HY6         HZ6         HX7         HY7     
           HX6           0.3179951
           HY6           0.0000000   0.0536226
           HZ6           0.1283578   0.0000000   0.1228796
           HX7          -0.0130619   0.0259043   0.0106186   0.1383701
           HY7          -0.0014609   0.0026664   0.0020651  -0.1353451   0.2593201
           HZ7          -0.0068810   0.0153073   0.0055861  -0.0451359   0.0700474
           HX8          -0.0130619  -0.0259043   0.0106186   0.0117313   0.0161813
           HY8           0.0014609   0.0026664  -0.0020651  -0.0161813  -0.0230381
           HZ8          -0.0068810  -0.0153073   0.0055861  -0.0069751  -0.0088797
                             HZ7         HX8         HY8         HZ8     
           HZ7           0.0796872
           HX8          -0.0069751   0.1383701
           HY8           0.0088797   0.1353451   0.2593201
           HZ8           0.0038534  -0.0451359  -0.0700474   0.0796872


 Atomic Masses
     1-   8   12.000000   15.994910   15.994910    1.007825   12.000000    1.007825    1.007825    1.007825

 Mass weighted Second Derivative Matrix
                             CX1         CY1         CZ1         OX2         OY2     
           CX1           0.0882343
           CY1          -0.0000000   0.0239691
           CZ1          -0.0196878  -0.0000000   0.0722786
           OX2          -0.0503085   0.0000000   0.0250098   0.0523235
           OY2          -0.0000000  -0.0070688  -0.0000000  -0.0000000   0.0023636
           OZ2           0.0237611  -0.0000000  -0.0252770  -0.0236788   0.0000000
           OX3          -0.0197434   0.0000000  -0.0048581  -0.0083694   0.0000000
           OY3           0.0000000  -0.0059063   0.0000000  -0.0000000   0.0022598
           OZ3          -0.0070895  -0.0000000  -0.0156991   0.0000807  -0.0000000
           HX4           0.0044448   0.0000000  -0.0172362   0.0003946   0.0000000
           HY4          -0.0000000   0.0014048  -0.0000000  -0.0000000  -0.0016555
           HZ4          -0.0011556  -0.0000000  -0.0105448   0.0023869  -0.0000000
           CX5          -0.0079766  -0.0000000   0.0006872  -0.0008775   0.0000000
           CY5           0.0000000  -0.0094638  -0.0000000   0.0000000   0.0023982
           CZ5           0.0005212  -0.0000000  -0.0205152   0.0010746  -0.0000000
           HX6           0.0008850  -0.0000000   0.0015596   0.0005762   0.0000000
           HY6           0.0000000  -0.0007825   0.0000000  -0.0000000  -0.0001559
           HZ6          -0.0117424   0.0000000  -0.0032948   0.0006530  -0.0000000
           HX7          -0.0015979   0.0008063   0.0004800   0.0002742  -0.0002064
           HY7          -0.0000426   0.0005078   0.0005760  -0.0002679  -0.0002454
           HZ7           0.0063091  -0.0111062  -0.0007678   0.0004813   0.0014896
           HX8          -0.0015979  -0.0008063   0.0004800   0.0002742   0.0002064
           HY8           0.0000426   0.0005078  -0.0005760   0.0002679  -0.0002454
           HZ8           0.0063091   0.0111062  -0.0007678   0.0004813  -0.0014896
                             OZ2         OX3         OY3         OZ3         HX4     
           OZ2           0.0204768
           OX3          -0.0008687   0.0307340
           OY3           0.0000000  -0.0000000   0.0028940
           OZ3           0.0029737   0.0003866  -0.0000000   0.0486460
           HX4           0.0020536  -0.0213407  -0.0000000   0.0348104   0.0740202
           HY4           0.0000000  -0.0000000  -0.0045423  -0.0000000  -0.0000000
           HZ4           0.0011377   0.0205110  -0.0000000  -0.1411663  -0.0835494
           CX5           0.0036427   0.0000056  -0.0000000  -0.0034319  -0.0018173
           CY5          -0.0000000   0.0000000   0.0010905   0.0000000  -0.0000000
           CZ5          -0.0013428  -0.0003317  -0.0000000  -0.0022760  -0.0007150
           HX6           0.0000270   0.0003257  -0.0000000   0.0003230   0.0003845
           HY6          -0.0000000  -0.0000000   0.0003954   0.0000000  -0.0000000
           HZ6           0.0010961   0.0002060   0.0000000  -0.0026318  -0.0017774
           HX7           0.0005758   0.0000131  -0.0000910  -0.0003447  -0.0000127
           HY7           0.0001443  -0.0001722   0.0001165   0.0000036  -0.0001946
           HZ7          -0.0019005  -0.0004442   0.0008085   0.0000903   0.0002053
           HX8           0.0005758   0.0000131   0.0000910  -0.0003447  -0.0000127
           HY8          -0.0001443   0.0001722   0.0001165  -0.0000036   0.0001946
           HZ8          -0.0019005  -0.0004442  -0.0008085   0.0000903   0.0002053
                             HY4         HZ4         CX5         CY5         CZ5     
           HY4           0.0143511
           HZ4          -0.0000000   0.5928103
           CX5          -0.0000000  -0.0013172   0.0565269
           CY5           0.0012828   0.0000000  -0.0000000   0.0499529
           CZ5           0.0000000   0.0004957   0.0025366   0.0000000   0.0474258
           HX6           0.0000000   0.0003737  -0.0859660   0.0000000  -0.0350243
           HY6           0.0007938   0.0000000  -0.0000000  -0.0166768   0.0000000
           HZ6          -0.0000000  -0.0008468  -0.0317507  -0.0000000  -0.0332337
           HX7          -0.0002101   0.0002438  -0.0381361   0.0357209   0.0111139
           HY7           0.0001360  -0.0002204   0.0352930  -0.0691086  -0.0188656
           HZ7           0.0008315   0.0002796   0.0105518  -0.0188853  -0.0228520
           HX8           0.0002101   0.0002438  -0.0381361  -0.0357209   0.0111139
           HY8           0.0001360   0.0002204  -0.0352930  -0.0691086   0.0188656
           HZ8          -0.0008315   0.0002796   0.0105518   0.0188853  -0.0228520
                             HX6         HY6         HZ6         HX7         HY7     
           HX6           0.3155261
           HY6           0.0000000   0.0532063
           HZ6           0.1273612   0.0000000   0.1219255
           HX7          -0.0129605   0.0257032   0.0105362   0.1372957
           HY7          -0.0014496   0.0026457   0.0020490  -0.1342943   0.2573067
           HZ7          -0.0068276   0.0151884   0.0055427  -0.0447854   0.0695035
           HX8          -0.0129605  -0.0257032   0.0105362   0.0116402   0.0160557
           HY8           0.0014496   0.0026457  -0.0020490  -0.0160557  -0.0228592
           HZ8          -0.0068276  -0.0151884   0.0055427  -0.0069209  -0.0088107
                             HZ7         HX8         HY8         HZ8     
           HZ7           0.0790685
           HX8          -0.0069209   0.1372957
           HY8           0.0088107   0.1342943   0.2573067
           HZ8           0.0038235  -0.0447854  -0.0695035   0.0790685


 Mass Weighted 2nd Derivative Matrix Eigenvalues
     1-  10    0.000000    0.000000    0.000000    0.000000    0.000000    0.000000    0.000388    0.007792    0.012858    0.015599
    11-  20    0.019328    0.032971    0.045801    0.051936    0.068408    0.080747    0.090714    0.095306    0.096176    0.154615
    21-  24    0.385879    0.401399    0.412841    0.642248

 Mass Weighted 2nd Derivative Matrix Eigenvectors
              1             2             3             4             5             6             7             8
    1   -0.08013493    0.12452123    0.22091495    0.35943921   -0.01197295    0.00939364    0.00000000    0.31073403
    2    0.13701793    0.35473381   -0.12801503   -0.00566795    0.19805166   -0.05354526    0.03965154    0.00000000
    3    0.02678982   -0.14020940    0.12415083   -0.01299253    0.36231899    0.18436774    0.00000000   -0.02935066
    4   -0.14755518    0.20356790    0.42673386    0.28888734    0.00686782   -0.05436251    0.00000000    0.18052950
    5    0.02201334    0.73314829   -0.17514654   -0.15224911    0.07643563    0.51135277   -0.20432415    0.00000000
    6   -0.06840134   -0.05393837    0.45318286   -0.24256500    0.45564536    0.09517135    0.00000000   -0.37153820
    7   -0.15384007    0.21039726    0.44633873    0.27448875    0.00923054   -0.06180868    0.00000000    0.07319071
    8    0.80193978    0.16595368    0.10172202    0.07294865    0.15081006   -0.35005036    0.18635553    0.00000000
    9    0.14322395   -0.28389695   -0.20695388    0.24226514    0.37608778    0.34589940    0.00000000    0.52026220
   10   -0.06106791    0.07720968    0.18207289    0.01746493    0.01075737   -0.04211500    0.00000000   -0.14100786
   11    0.27570854    0.07496257    0.06011950   -0.00161672   -0.00924792   -0.00547776   -0.00463079    0.00000000
   12    0.03185855   -0.06681516   -0.03918127    0.05143552    0.09594280    0.08197708    0.00000000    0.10300291
   13    0.04392912   -0.01029061   -0.16608624    0.64366797   -0.05861310    0.15638145    0.00000000   -0.37567717
   14   -0.30207398    0.19189738   -0.32895757    0.09596310    0.45511909   -0.47629160    0.01236858    0.00000000
   15    0.04158107   -0.15628203    0.07801152    0.02089398    0.35675843    0.20189202    0.00000000   -0.12545896
   16    0.02430342   -0.01555745   -0.08423154    0.21304928   -0.02133679    0.05903069    0.00000000   -0.24131085
   17   -0.21669670    0.10740638   -0.14511997    0.01047744    0.14570048   -0.07470128    0.51308466    0.00000000
   18   -0.01129104   -0.01992749    0.09541807   -0.04741948    0.11216429    0.03085460    0.00000000    0.22884745
   19    0.09526959   -0.06800293   -0.04384825    0.22580652   -0.01097085   -0.03408415   -0.48378499   -0.20217957
   20   -0.06706350    0.01151599   -0.09079273    0.04755799    0.15195365   -0.21562630   -0.30818621   -0.00680882
   21    0.10951170   -0.03923088    0.01736653    0.02278937    0.05549433    0.13624680   -0.01528728   -0.19507392
   22   -0.05553805    0.04653221   -0.09692951    0.17995886   -0.02836619    0.14163032    0.48378499   -0.20217957
   23   -0.06706350    0.01151599   -0.09079273    0.04755799    0.15195365   -0.21562630   -0.30818621    0.00680882
   24   -0.05807363   -0.08105668   -0.05742630    0.05195062    0.14100740    0.01315950    0.01528728   -0.19507392
              9            10            11            12            13            14            15            16
    1    0.00000000   -0.02455776    0.00000000    0.16452129    0.07263877    0.00000000    0.23537605   -0.32199019
    2   -0.50728068    0.00000000    0.48251572    0.00000000    0.00000000    0.54607527    0.00000000    0.00000000
    3    0.00000000   -0.21367224    0.00000000   -0.25646129    0.17614585    0.00000000    0.30585322   -0.47459208
    4    0.00000000    0.36484394    0.00000000    0.39903310   -0.07820362    0.00000000    0.24513619    0.14572492
    5    0.14892550    0.00000000   -0.24367227    0.00000000    0.00000000   -0.13201965    0.00000000    0.00000000
    6    0.00000000    0.48792801    0.00000000   -0.13064457    0.09607794    0.00000000   -0.14674469    0.04193243
    7    0.00000000   -0.37228349    0.00000000   -0.39774456   -0.30447841    0.00000000   -0.49838894   -0.00922743
    8   -0.02198273    0.00000000   -0.35238340    0.00000000    0.00000000   -0.09426478    0.00000000    0.00000000
    9    0.00000000    0.20098738    0.00000000   -0.23463342   -0.20071417    0.00000000   -0.02698503    0.22936220
   10    0.00000000   -0.33351751    0.00000000   -0.31690809    0.13633276    0.00000000    0.60944174    0.49596575
   11    0.71778055    0.00000000    0.63187785    0.00000000    0.00000000    0.00892509    0.00000000    0.00000000
   12    0.00000000    0.00803317    0.00000000   -0.09829160   -0.01342113    0.00000000    0.11429115    0.13391039
   13    0.00000000    0.08972376    0.00000000   -0.06029877    0.45354925    0.00000000   -0.18559878    0.10425614
   14    0.03865182    0.00000000    0.10766746    0.00000000    0.00000000   -0.42651646    0.00000000    0.00000000
   15    0.00000000   -0.46371121    0.00000000    0.53695211   -0.00201345    0.00000000   -0.07355571   -0.11664308
   16    0.00000000    0.05512265    0.00000000   -0.03260157   -0.13806705    0.00000000    0.06685484   -0.14122344
   17    0.19566711    0.00000000   -0.13325167    0.00000000    0.00000000    0.26118871    0.00000000    0.00000000
   18    0.00000000   -0.19750465    0.00000000    0.20135452    0.52834636    0.00000000   -0.26254708    0.31258189
   19   -0.01017337    0.04158452   -0.02619042   -0.00762834   -0.14470650    0.10914564    0.08042539   -0.07360149
   20    0.09895017    0.00042572   -0.08027870   -0.00257020   -0.05712762    0.10940345    0.06662603   -0.15331960
   21   -0.26946845   -0.10881846    0.26528214    0.19213247   -0.34947032   -0.43445800    0.01939476    0.25642718
   22    0.01017337    0.04158452    0.02619042   -0.00762834   -0.14470650   -0.10914564    0.08042539   -0.07360149
   23    0.09895017   -0.00042572   -0.08027870    0.00257020    0.05712762    0.10940345   -0.06662603    0.15331960
   24    0.26946845   -0.10881846   -0.26528214    0.19213247   -0.34947032    0.43445800    0.01939476    0.25642718
             17            18            19            20            21            22            23            24
    1   -0.27099793   -0.05898625    0.00000000    0.65896552    0.00122664    0.00000000   -0.01002479   -0.00159605
    2    0.00000000    0.00000000   -0.08331111    0.00000000    0.00000000   -0.00349047    0.00000000    0.00000000
    3   -0.34518290   -0.13686082    0.00000000   -0.44566079    0.01071827    0.00000000    0.00433846   -0.00668181
    4    0.11502016   -0.03805412    0.00000000   -0.49106697    0.00013027    0.00000000    0.00456175    0.00306229
    5    0.00000000    0.00000000    0.00979234    0.00000000    0.00000000   -0.00064574    0.00000000    0.00000000
    6    0.01296285    0.05401032    0.00000000    0.28763607   -0.00111399    0.00000000   -0.00159453    0.00013838
    7    0.05313816    0.01999895    0.00000000   -0.07502315   -0.00036064    0.00000000    0.00158944    0.03751294
    8    0.00000000    0.00000000    0.01150853    0.00000000    0.00000000    0.00043754    0.00000000    0.00000000
    9    0.13468642    0.03517762    0.00000000    0.03276703   -0.00128390    0.00000000    0.00138229   -0.23681356
   10    0.20235157    0.05246088    0.00000000    0.13857538   -0.00208514    0.00000000    0.00074405   -0.15659602
   11    0.00000000    0.00000000    0.00728097    0.00000000    0.00000000    0.00052443    0.00000000    0.00000000
   12    0.06044205    0.01528639    0.00000000    0.03303714    0.00122032    0.00000000   -0.00111267    0.95808333
   13    0.00919858   -0.15985997    0.00000000   -0.04388688    0.07860770    0.00000000   -0.30098561   -0.00063115
   14    0.00000000    0.00000000   -0.18153522    0.00000000    0.00000000   -0.30398533    0.00000000    0.00000000
   15    0.47542739   -0.01155715    0.00000000    0.07168264   -0.15807818    0.00000000   -0.06989607    0.00213876
   16    0.21793163   -0.20732859    0.00000000    0.04517709    0.37761552    0.00000000    0.77577043    0.00069756
   17    0.00000000    0.00000000    0.71120737    0.00000000    0.00000000   -0.01396272    0.00000000    0.00000000
   18   -0.30232117    0.34670936    0.00000000   -0.06718319    0.18153291    0.00000000    0.38445390    0.00037562
   19   -0.09341077    0.49097639    0.32545495   -0.02548282   -0.32504560   -0.35963758    0.13608067    0.00096990
   20    0.12119732    0.37199284    0.05526953   -0.00985952    0.51266087    0.53762607   -0.22967476   -0.00101493
   21   -0.39787617   -0.10258412    0.34355179    0.02409052    0.16764182    0.18791345   -0.07814041    0.00004290
   22   -0.09341077    0.49097639   -0.32545495   -0.02548282   -0.32504560    0.35963758    0.13608067    0.00096990
   23   -0.12119732   -0.37199284    0.05526953    0.00985952   -0.51266087    0.53762607    0.22967476    0.00101493
   24   -0.39787617   -0.10258412   -0.34355179    0.02409052    0.16764182   -0.18791345   -0.07814041    0.00004290

   Low Vibration      Wavenumber
        Nr             [1/cm] 
        1                0.00
        2                0.00
        3                0.00
        4                0.00
        5                0.00
        6                0.00

     Vibration        Wavenumber
        Nr             [1/cm] 
        1              101.26
        2              453.78
        3              582.91
        4              642.02
        5              714.65
        6              933.41
        7             1100.13
        8             1171.49
        9             1344.49
       10             1460.73
       11             1548.25
       12             1586.95
       13             1594.18
       14             2021.30
       15             3193.23
       16             3256.81
       17             3302.90
       18             4119.61

 FREQUENCIES * CALCULATION OF NORMAL MODES FOR HF-SCF


 Atomic Coordinates

  Nr  Atom  Charge       X              Y              Z

   1   C     6.00    0.188871203    0.000000000   -0.079420908
   2   O     8.00    2.141443374    0.000000000   -1.161320327
   3   O     8.00   -2.018538292    0.000000000   -1.284864297
   4   H     1.00   -1.698013563    0.000000000   -3.043066625
   5   C     6.00   -0.146811461    0.000000000    2.736173489
   6   H     1.00    1.681068851    0.000000000    3.642438547
   7   H     1.00   -1.217222901    1.655124674    3.294922197
   8   H     1.00   -1.217222901   -1.655124674    3.294922197

 Gradient norm at reference geometry: 0.19289D-03

 Normal Modes

                              1 A``       2 A`        3 A``       4 A`        5 A``
 Wavenumbers [cm-1]          101.26      453.78      582.91      642.02      714.65
 Intensities [km/mol]          0.00        0.00        0.00        0.00        0.00
 Intensities [relative]        0.00        0.00        0.00        0.00        0.00
           CX1              0.00000     0.08970     0.00000    -0.00709    -0.00000
           CY1              0.01145     0.00000    -0.14644    -0.00000     0.13929
           CZ1             -0.00000    -0.00847    -0.00000    -0.06168    -0.00000
           OX2              0.00000     0.04514     0.00000     0.09123     0.00000
           OY2             -0.05109     0.00000     0.03724     0.00000    -0.06093
           OZ2             -0.00000    -0.09290    -0.00000     0.12200     0.00000
           OX3              0.00000     0.01830    -0.00000    -0.09309    -0.00000
           OY3              0.04660    -0.00000    -0.00550     0.00000    -0.08811
           OZ3             -0.00000     0.13009     0.00000     0.05025    -0.00000
           HX4             -0.00000    -0.14046    -0.00000    -0.33222    -0.00000
           HY4             -0.00461    -0.00000     0.71499    -0.00000     0.62942
           HZ4             -0.00000     0.10260     0.00000     0.00800    -0.00000
           CX5              0.00000    -0.10845    -0.00000     0.02590     0.00000
           CY5              0.00357     0.00000     0.01116    -0.00000     0.03108
           CZ5             -0.00000    -0.03622    -0.00000    -0.13386    -0.00000
           HX6              0.00000    -0.24037    -0.00000     0.05491     0.00000
           HY6              0.51109    -0.00000     0.19491    -0.00000    -0.13273
           HZ6             -0.00000     0.22796     0.00000    -0.19674    -0.00000
           HX7             -0.48190    -0.20139    -0.01013     0.04142    -0.02609
           HY7             -0.30699    -0.00678     0.09857     0.00042    -0.07997
           HZ7             -0.01523    -0.19432    -0.26842    -0.10840     0.26425
           HX8              0.48190    -0.20139     0.01013     0.04142     0.02609
           HY8             -0.30699     0.00678     0.09857    -0.00042    -0.07997
           HZ8              0.01523    -0.19432     0.26842    -0.10840    -0.26425

                              6 A`        7 A`        8 A``       9 A`       10 A` 
 Wavenumbers [cm-1]          933.41     1100.13     1171.49     1344.49     1460.73
 Intensities [km/mol]          0.00        0.00        0.00        0.00        0.00
 Intensities [relative]        0.00        0.00        0.00        0.00        0.00
           CX1              0.04749     0.02097     0.00000     0.06795    -0.09295
           CY1              0.00000    -0.00000     0.15764     0.00000     0.00000
           CZ1             -0.07403     0.05085     0.00000     0.08829    -0.13700
           OX2              0.09977    -0.01955     0.00000     0.06129     0.03644
           OY2             -0.00000    -0.00000    -0.03301     0.00000    -0.00000
           OZ2             -0.03267     0.02402     0.00000    -0.03669     0.01048
           OX3             -0.09945    -0.07613    -0.00000    -0.12462    -0.00231
           OY3              0.00000     0.00000    -0.02357    -0.00000     0.00000
           OZ3             -0.05867    -0.05019    -0.00000    -0.00675     0.05735
           HX4             -0.31568     0.13580    -0.00000     0.60707     0.49404
           HY4              0.00000    -0.00000     0.00889     0.00000     0.00000
           HZ4             -0.09791    -0.01337    -0.00000     0.11385     0.13339
           CX5             -0.01741     0.13093     0.00000    -0.05358     0.03010
           CY5              0.00000     0.00000    -0.12312    -0.00000    -0.00000
           CZ5              0.15500    -0.00058     0.00000    -0.02123    -0.03367
           HX6             -0.03247    -0.13753    -0.00000     0.06659    -0.14067
           HY6             -0.00000    -0.00000     0.26017     0.00000     0.00000
           HZ6              0.20057     0.52629     0.00000    -0.26153     0.31137
           HX7             -0.00760    -0.14414     0.10872     0.08011    -0.07332
           HY7             -0.00256    -0.05691     0.10898     0.06637    -0.15272
           HZ7              0.19139    -0.34811    -0.43277     0.01932     0.25543
           HX8             -0.00760    -0.14414    -0.10872     0.08011    -0.07332
           HY8              0.00256     0.05691     0.10898    -0.06637     0.15272
           HZ8              0.19139    -0.34811     0.43277     0.01932     0.25543

                             11 A`       12 A`       13 A``      14 A`       15 A` 
 Wavenumbers [cm-1]         1548.25     1586.95     1594.18     2021.30     3193.23
 Intensities [km/mol]          0.00        0.00        0.00        0.00        0.00
 Intensities [relative]        0.00        0.00        0.00        0.00        0.00
           CX1             -0.07823    -0.01703     0.00000     0.19023     0.00035
           CY1              0.00000    -0.00000    -0.02405     0.00000    -0.00000
           CZ1             -0.09965    -0.03951     0.00000    -0.12865     0.00309
           OX2              0.02876    -0.00952     0.00000    -0.12279     0.00003
           OY2             -0.00000     0.00000     0.00245    -0.00000    -0.00000
           OZ2              0.00324     0.01350    -0.00000     0.07192    -0.00028
           OX3              0.01329     0.00500    -0.00000    -0.01876    -0.00009
           OY3             -0.00000     0.00000     0.00288    -0.00000     0.00000
           OZ3              0.03368     0.00880    -0.00000     0.00819    -0.00032
           HX4              0.20156     0.05226    -0.00000     0.13804    -0.00208
           HY4              0.00000     0.00000     0.00725     0.00000    -0.00000
           HZ4              0.06021     0.01523    -0.00000     0.03291     0.00122
           CX5              0.00266    -0.04615     0.00000    -0.01267     0.02269
           CY5              0.00000    -0.00000    -0.05240     0.00000     0.00000
           CZ5              0.13724    -0.00334     0.00000     0.02069    -0.04563
           HX6              0.21708    -0.20652     0.00000     0.04500     0.37615
           HY6              0.00000     0.00000     0.70844    -0.00000     0.00000
           HZ6             -0.30115     0.34536    -0.00000    -0.06692     0.18083
           HX7             -0.09305     0.48907     0.32419    -0.02538    -0.32378
           HY7              0.12073     0.37055     0.05505    -0.00982     0.51067
           HZ7             -0.39633    -0.10219     0.34222     0.02400     0.16699
           HX8             -0.09305     0.48907    -0.32419    -0.02538    -0.32378
           HY8             -0.12073    -0.37055     0.05505     0.00982    -0.51067
           HZ8             -0.39633    -0.10219    -0.34222     0.02400     0.16699

                             16 A``      17 A`       18 A` 
 Wavenumbers [cm-1]         3256.81     3302.90     4119.61
 Intensities [km/mol]          0.00        0.00        0.00
 Intensities [relative]        0.00        0.00        0.00
           CX1             -0.00000    -0.00289    -0.00046
           CY1             -0.00101     0.00000     0.00000
           CZ1             -0.00000     0.00125    -0.00193
           OX2             -0.00000     0.00114     0.00077
           OY2             -0.00016    -0.00000     0.00000
           OZ2              0.00000    -0.00040     0.00003
           OX3              0.00000     0.00040     0.00938
           OY3              0.00011     0.00000    -0.00000
           OZ3              0.00000     0.00035    -0.05921
           HX4             -0.00000     0.00074    -0.15599
           HY4              0.00052    -0.00000    -0.00000
           HZ4             -0.00000    -0.00111     0.95436
           CX5              0.00000    -0.08689    -0.00018
           CY5             -0.08775     0.00000    -0.00000
           CZ5             -0.00000    -0.02018     0.00062
           HX6              0.00000     0.77275     0.00069
           HY6             -0.01391     0.00000     0.00000
           HZ6              0.00000     0.38296     0.00037
           HX7             -0.35824     0.13555     0.00097
           HY7              0.53553    -0.22878    -0.00101
           HZ7              0.18718    -0.07784     0.00004
           HX8              0.35824     0.13555     0.00097
           HY8              0.53553     0.22878     0.00101
           HZ8             -0.18718    -0.07784     0.00004


 Normal Modes of low/zero frequencies

                                  1           2           3           4           5
 Wavenumbers [cm-1]            0.00        0.00        0.00        0.00        0.00
 Intensities [km/mol]          0.00        0.00        0.00        0.00        0.00
 Intensities [relative]        0.00        0.00        0.00        0.00        0.00
           CX1             -0.02313     0.03595     0.06377     0.10376    -0.00346
           CY1              0.03955     0.10240    -0.03695    -0.00164     0.05717
           CZ1              0.00773    -0.04047     0.03584    -0.00375     0.10459
           OX2             -0.03689     0.05090     0.10670     0.07223     0.00172
           OY2              0.00550     0.18332    -0.04379    -0.03807     0.01911
           OZ2             -0.01710    -0.01349     0.11331    -0.06065     0.11393
           OX3             -0.03847     0.05261     0.11160     0.06863     0.00231
           OY3              0.20052     0.04150     0.02543     0.01824     0.03771
           OZ3              0.03581    -0.07099    -0.05175     0.06058     0.09404
           HX4             -0.06083     0.07691     0.18136     0.01740     0.01072
           HY4              0.27464     0.07467     0.05989    -0.00161    -0.00921
           HZ4              0.03173    -0.06656    -0.03903     0.05124     0.09557
           CX5              0.01268    -0.00297    -0.04794     0.18581    -0.01692
           CY5             -0.08720     0.05540    -0.09496     0.02770     0.13138
           CZ5              0.01200    -0.04511     0.02252     0.00603     0.10299
           HX6              0.02421    -0.01550    -0.08390     0.21222    -0.02125
           HY6             -0.21585     0.10699    -0.14456     0.01044     0.14513
           HZ6             -0.01125    -0.01985     0.09505    -0.04724     0.11173
           HX7              0.09490    -0.06774    -0.04368     0.22493    -0.01093
           HY7             -0.06680     0.01147    -0.09044     0.04737     0.15136
           HZ7              0.10909    -0.03908     0.01730     0.02270     0.05528
           HX8             -0.05532     0.04635    -0.09655     0.17926    -0.02826
           HY8             -0.06680     0.01147    -0.09044     0.04737     0.15136
           HZ8             -0.05785    -0.08074    -0.05720     0.05175     0.14046

                                  6
 Wavenumbers [cm-1]            0.00
 Intensities [km/mol]          0.00
 Intensities [relative]        0.00
           CX1              0.00271
           CY1             -0.01546
           CZ1              0.05322
           OX2             -0.01359
           OY2              0.12786
           OZ2              0.02380
           OX3             -0.01545
           OY3             -0.08753
           OZ3              0.08649
           HX4             -0.04195
           HY4             -0.00546
           HZ4              0.08166
           CX5              0.04514
           CY5             -0.13749
           CZ5              0.05828
           HX6              0.05880
           HY6             -0.07441
           HZ6              0.03073
           HX7             -0.03395
           HY7             -0.21479
           HZ7              0.13572
           HX8              0.14108
           HY8             -0.21479
           HZ8              0.01311


 Frequencies dumped to record   5400.2
 Frequency information read from record  5400.2

 Zero point energy:  0.06635865 [H]    14564.04 [1/CM]      174.22 [KJ/MOL]


 **********************************************************************************************************************************
 DATASETS  * FILE   NREC   LENGTH (MB)   RECORD NAMES
              1      19       48.87       500      610      700      900      950      970     1000      129      960     1100   
                                          VAR    BASINP    GEOM    SYMINP    ZMAT    AOBASIS   BASIS     P2S    ABASIS      S 
                                         1400     1410     1200     1210     1080     1600     1650     1300     1700   
                                           T        V       H0       H01     AOSYM     SMH    MOLCAS    ERIS     OPER   

              2       7        0.67       700     1000      520     2100     5300     5450     5400   
                                         GEOM     BASIS   MCVARS     RHF     HESS     NMOD     FREQ   

              4       5        1.62      4100     4000     4200     4300     4400   

 PROGRAMS   *        TOTAL      FREQ      OPTG    HF-SCF       INT
 CPU TIMES  *        42.85     25.81     15.62      0.40      0.92
 REAL TIME  *        44.64 SEC
 DISK USED  *       113.26 MB
 **********************************************************************************************************************************

 Dump information in style MOLDEN to ch3cooh.molden                                                                  

 Molecular orbitals read from record     2100.2  Type=RHF/CANONICAL  
 Occupation numbers read from record     2100.2  Type=RHF/RHF  
 Orbital energies read from record       2100.2  Type=RHF/CANONICAL  
 Redundancy group numbers read from rec  2100.2  Type=RHF/RHF  

 DUMP ORBITAL  1.1 AS ORBITAL    1  occ=    2.0000  eig=  -20.6025  GROUP=   2
 DUMP ORBITAL  2.1 AS ORBITAL    2  occ=    2.0000  eig=  -20.5399  GROUP=   2
 DUMP ORBITAL  3.1 AS ORBITAL    3  occ=    2.0000  eig=  -11.3805  GROUP=   2
 DUMP ORBITAL  4.1 AS ORBITAL    4  occ=    2.0000  eig=  -11.2404  GROUP=   2
 DUMP ORBITAL  5.1 AS ORBITAL    5  occ=    2.0000  eig=   -1.4807  GROUP=   2
 DUMP ORBITAL  6.1 AS ORBITAL    6  occ=    2.0000  eig=   -1.3722  GROUP=   2
 DUMP ORBITAL  7.1 AS ORBITAL    7  occ=    2.0000  eig=   -1.0280  GROUP=   2
 DUMP ORBITAL  8.1 AS ORBITAL    8  occ=    2.0000  eig=   -0.8340  GROUP=   2
 DUMP ORBITAL  9.1 AS ORBITAL    9  occ=    2.0000  eig=   -0.7063  GROUP=   2
 DUMP ORBITAL 10.1 AS ORBITAL   10  occ=    2.0000  eig=   -0.6861  GROUP=   2
 DUMP ORBITAL  1.2 AS ORBITAL   11  occ=    2.0000  eig=   -0.6565  GROUP=   2
 DUMP ORBITAL 11.1 AS ORBITAL   12  occ=    2.0000  eig=   -0.5842  GROUP=   2
 DUMP ORBITAL 12.1 AS ORBITAL   13  occ=    2.0000  eig=   -0.5731  GROUP=   2
 DUMP ORBITAL  2.2 AS ORBITAL   14  occ=    2.0000  eig=   -0.5626  GROUP=   2
 DUMP ORBITAL  3.2 AS ORBITAL   15  occ=    2.0000  eig=   -0.4844  GROUP=   2
 DUMP ORBITAL 13.1 AS ORBITAL   16  occ=    2.0000  eig=   -0.4512  GROUP=   2

 Total charge:      32.000000
 Frequency information read from record  5400.2

 **********************************************************************************************************************************

 HF/6-311G(D,P) energy=   -227.877964044841

    OPTG(HF-SCF)          HF-SCF
   -227.87796404   -227.87318977
 **********************************************************************************************************************************
 Molpro calculation terminated
