[Molden Format]
[Molpro variables]
_NUMVAR=  1088.000000000000    
_AVOGAD= 0.6022140760000000E+24
_BOLTZ= 0.1380649000000000E-22
_CLIGHTSI=  299792458.0000000    
_JOULE= 0.4359744722207100E-17
_JPCAL=  4.184000000000000    
_PLANCK= 0.6626070150000000E-33
_BOHR= 0.5291772109030000E-10
_ECHARG= 0.1602176634000000E-18
_ENULL= 0.8854187812800001E-11
_MU= 0.1660539066600000E-26
_EMASS= 0.9109383701500001E-30
_AMU2AU=  1822.888486217313    
_CLIGHT=  29979245800.00000    
_EV= 0.3674932217565494E-01
_KJOULE= 0.3808798847133432E-03
_KJOULE/MOL= 0.3808798847133432E-03
_CM= 0.4556335252912009E-05
_CM-1= 0.4556335252912009E-05
_DEB2SI= 0.3335640951981520E-29
_KCAL= 0.1593601437640628E-02
_KCAL/MOL= 0.1593601437640628E-02
_KELVIN= 0.3166811563455608E-05
_HERTZ= 0.1519829846057038E-15
_HZ= 0.1519829846057038E-15
_TOA= 0.5291772109030000    
_TOANG= 0.5291772109030000    
_TORAD= 0.1745329251994330E-01
_TOCM=  219474.6313631965    
_TODEBYE=  2.541746473194078    
_TOE= 0.4803204712570263E-09
_TOEV=  27.21138624598803    
_TOHERTZ=  6579683920501656.    
_TOHZ=  6579683920501656.    
_TOK=  315775.0248040668    
_TOKCAL=  627.5094740630558    
_TOKELVIN=  315775.0248040668    
_TOKJ=  2625.499639479825    
_TOKJOULE=  2625.499639479825    
_TOKG= 0.1660539066600000E-26
_ANG=  1.889726124625770    
_ANGSTROM=  1.889726124625770    
_RPAREF=  0.000000000000000    
_RPADISS=  0.000000000000000    
_IGNORE_UNDEF=  2.000000000000000    
_STRICTCHECK=  0.000000000000000    
!SEWARD=  0.000000000000000    
!MULTI=  0.000000000000000    
!DFMULTI=  0.000000000000000    
!NUMHESS=  0.000000000000000    
_SEW_ONEEL=  0.000000000000000    
_CPPDONE=FALSE
_DKROLL_DONE=  0.000000000000000    
_FNUC_DONE=  0.000000000000000    
_FOCKDONE=TRUE
_GRADONE=FALSE
_HESSDONE=TRUE
_INTDONE=TRUE
_SCFDONE=TRUE
_MODUL_BLOCK=FALSE
_MODUL_SLATER=TRUE
_MODUL_MRCC=FALSE
_MODUL_NBO6=FALSE
_MODUL_NECI=FALSE
_MODUL_AIMS=TRUE
_MODUL_HDF5=FALSE
_MODUL_GECCO=FALSE
_ISWINDOWS=FALSE
_MRCC_EXEC=
_FITC_AO_SAVED=FALSE
_FITC_MO_SAVED=FALSE
_LSTYP=SEWARD
_INTYP=INTS
_GEOMTYP=XYZ
_GRADTYP=ALASKA
_DIRECT=FALSE
_DKHO= -1.000000000000000    
_FNUC=  0.000000000000000    
_SYNCM=  0.000000000000000    
_BASIS=6-311G(D,P)
_ZCENTRE=MASS
_ZORIENT=  1.000000000000000    
_NELEC=  32.00000000000000    
!SPIN=  0.000000000000000    
_OPTCONV= 0.3304701356769942E-03
_QSDSTEP=  0.000000000000000    
_QSDIRC=  0.000000000000000    
_PROGRAM=FREQ
_CPUSTEP=  25.81000000000000    
_SYSSTEP= 0.7500000000000000    
_WALLSTEP=  26.57000000000000    
!DFSCF=  0.000000000000000    
!SCSGRD=  0.000000000000000    
_NCEN=  8.000000000000000    
_CPUTOT=  42.85000000000000    
_DFTEXFAC=  1.000000000000000    
_DMX=-0.6406340608120737    
_DMY=  0.000000000000000    
_DMZ= 0.3157168264721704    
_DMX_SCF=-0.6406340608120737    
_DMY_SCF=  0.000000000000000    
_DMZ_SCF= 0.3157168264721704    
_FREQUENCIES= 0.3414821523346990E-04
_HOMO=  13.10000000000000    
_EHOMO=-0.4511840778657131    
_LUMO=  14.10000000000000    
_ELUMO= 0.1508910194071199    
_ENERGY= -227.8779640448407    
_ENERGY_METHOD=HF
_ENERGY_BASIS=6-311G(D,P)
_GEOMETRY_METHOD=
_GEOMETRY_BASIS=
_ENUC=  122.7298102496613    
_GRADENERG= -227.8779640261676    
_GRADEXFAC=  9999.000000000000    
_GRADMETHOD=  1.000000000000000    
_NMRMETHOD=  0.000000000000000    
_NMRMAGNET=  0.000000000000000    
_VIRIAL=-0.2410765984295391E-03
!GRID_FREEZE= -1.000000000000000    
!NEESE_INDEX=  0.000000000000000    
_ITERATIONS=  11.00000000000000    
_LASTNELEC=  32.00000000000000    
_LASTSPIN=  0.000000000000000    
_LASTSYM=  1.000000000000000    
_MPP_PROG=  0.000000000000000    
_MSNSTATES=  0.000000000000000    
_RS2PHASE=  0.000000000000000    
_NPROC_MPP=  1.000000000000000    
_NPROC_SMP=  6.000000000000000    
_NUMSTEP=  0.000000000000000    
_OPTCONVMX= 0.2251380643179455E-03
_OPTCONVRMS= 0.9539851089612239E-04
_OPTGRAD= 0.1440771698129124E-03
_OPTGRADMX= 0.8087316729379284E-04
_OPTGRADRMS= 0.4159149638778220E-04
!GMAXLAST= 0.8087316729379284E-04
!DMAXLAST= 0.2251380643179455E-03
!DELAST= 0.7678392535126477E-06
_OPTSTEP=  5.000000000000000    
_ORBITAL=  2100.200000000000    
_PI=  3.141592653589793    
_SEIG_MIN= 0.2880804799046193E-02
_SEWPROP=TRUE
_STATUS=  1.000000000000000    
_SYSTOT=  1.780000000000000    
_VERSION=  2024001.000000000    
_WALLTOT=  44.64000000000000    
_ZPE= 0.6635864553900100E-01
_DATE=26-Sep-24
_LASTORB=0
_OUTPUT=/home/lme/Theoretische_Chemie/Nomodeco/metric_comparison/rmat/CH3COOH.molpro/run/CH3COOH_1.molpro/CH3COOH_1.out
_PGROUP=Cs
_TIME=13:52:42
_LIBMOL=/usr/local/molpro/molpro_2024.1.0_sockets/lib/
_VIGRDC=  0.000000000000000    
!VIBCNT=  0.000000000000000    
!SURFREC=  0.000000000000000    
!XSURFREC=  0.000000000000000    
!XPOLYREC=  0.000000000000000    
!ROTREC=  0.000000000000000    
!POLYREC=  0.000000000000000    
!DIPREC=  0.000000000000000    
!DIP4DREC=  0.000000000000000    
!DIPROT=  0.000000000000000    
!DIP4DROT=  0.000000000000000    
!PTREC=  0.000000000000000    
!PT4DREC=  0.000000000000000    
!VSCFREC=  0.000000000000000    
!VCIREC=  0.000000000000000    
!PVCIREC=  0.000000000000000    
!VMP2REC=  0.000000000000000    
!VMCSCFREC=  0.000000000000000    
!VMRCIREC=  0.000000000000000    
!VIBSTATEREC=  0.000000000000000    
!VIBSTATECNT=  0.000000000000000    
!VIBINFO=  0.000000000000000    
!GAREC=  0.000000000000000    
!SCFORB=  21002.00000000000    
!DEFCORE=  4.000000000000000    
!SCORE=  0.000000000000000    
!NEWMOL=  0.000000000000000    
!NEWSYM=  0.000000000000000    
_SLFILES=slscratch
_NGSSTO=  9.000000000000000    
_SIN=SIN
_COS=COS
_TAN=TAN
_ACOS=ACOS
_ASIN=ASIN
_ATAN=ATAN
_COSH=COSH
_SINH=SINH
_TANH=TANH
_ABS=ABS
_MOD=MOD
_ERF=ERF
_REFC=REFC
_ERFC=ERFC
_HYPOT=HYPOT
_J0=J0
_J1=J1
_JN=JN
_GAMMA=GAMMA
_LGAMMA=LGAMMA
_Y0=Y0
_Y1=Y1
_YN=YN
_EXP=EXP
_LOG=LOG
_LOG10=LOG10
_SQRT=SQRT
_INT=INT
_NINT=NINT
_MAX=MAX
_MIN=MIN
_COSMO=  0.000000000000000    
_COSMOIT=  0.000000000000000    
_COSMOES=  0.000000000000000    
_COSMOEDS=  0.000000000000000    
_COSMOEC=  0.000000000000000    
_COSMOEDCORR=  0.000000000000000    
_FEPSI=  1.000000000000000    
_SL_IsMM=  0.000000000000000    
_SL_NSYM=  2.000000000000000    
_SL_System_BitSw=  0.000000000000000    
_SL_Unique_atoms=  0.000000000000000    
_SL_GRAD=  0.000000000000000    
_SL_MAXUPD_Hess=  5.000000000000000    
_SL_N_PRINT_COD=  5.000000000000000    
_SL_PRINT_CODES=  0.000000000000000    
_SL_BasType=  0.000000000000000    
_SL_Energy_Pred=  0.000000000000000    
_SL_New_Coords=  0.000000000000000    
_SL_Total_Nuclea=  0.000000000000000    
_SL_Highest_Mltp=  0.000000000000000    
_SL_Ref_Geom=  0.000000000000000    
_SL_Symmetry_ope=  1.000000000000000    
_SL_agrad=  0.000000000000000    
_SL_GrdMax=  0.000000000000000    
_SL_GrdNorm=  0.000000000000000    
_SL_GrdRMS=  0.000000000000000    
_SL_Hss_Q=  0.000000000000000    
_SL_Hss_X=  0.000000000000000    
_SL_BMxOld=  0.000000000000000    
_SL_KtB=  0.000000000000000    
_SL_TROld=  0.000000000000000    
_SL_No_of_Intern=  0.000000000000000    
_SL_Hess=  0.000000000000000    
_SL_K=  0.000000000000000    
!LATTICE= -1.000000000000000    
!NEWLATTICE=  0.000000000000000    
!LATGRAD_VAR=FALSE
!SEW_LATTICE=  1.000000000000000    
!AIC_ONEEL=  0.000000000000000    
!LOCAL=  0.000000000000000    
!SAVEDOM= -1.000000000000000    
!RESTDOM= -1.000000000000000    
!SAVEDOM_HF= -1.000000000000000    
!RESTDOM_HF= -1.000000000000000    
!HESSREC=  5300.200000000000    
!FREQREC=  5400.200000000000    
!NMODREC=  5450.200000000000    
!GTASKS=  0.000000000000000    
!HTASKS=  0.000000000000000    
!SAVEDOM_EOM= -1.000000000000000    
!RESTDOM_EOM= -1.000000000000000    
!GRADSTATE= -1.000000000000000    
!DEBUG=  0.000000000000000    
!CFIT_CPHF=  0.000000000000000    
!RDOMAUX_CPHF=  0.000000000000000    
!THRAO_CPHF= 0.1000000000000000E-11
!THRMO_CPHF= 0.1000000000000000E-11
!THROV_CPHF= 0.1000000000000000E-13
!THRSW_CPHF= 0.1000000000000000E-11
!THRPROD_CPHF= 0.1000000000000000E-11
!THRAOPR_CPHF= 0.1000000000000000E-11
!CFIT_SCFGRD=  0.000000000000000    
!RDOMAUX_SCFGRD=  0.000000000000000    
!THRAO_SCFGRD= 0.1000000000000000E-11
!THRMO_SCFGRD= 0.1000000000000000E-11
!THROV_SCFGRD= 0.1000000000000000E-13
!THRSW_SCFGRD= 0.1000000000000000E-11
!THRPROD_SCFGRD= 0.1000000000000000E-11
!THRAOPR_SCFGRD= 0.1000000000000000E-11
!LOCFIT_SCF=  0.000000000000000    
!LOCFIT_MP2=  0.000000000000000    
_RIDOM=  0.000000000000000    
!CC2_METHOD=  0.000000000000000    
_BASIS2006=FALSE
_SVDDEL= -1.000000000000000    
_SVDDELA= -1.000000000000000    
_SVDDELP= -1.000000000000000    
_SVDDELF= -1.000000000000000    
_SVDDELS= -1.000000000000000    
_SVDDEL_ABS= -1.000000000000000    
_SVDDELA_ABS= -1.000000000000000    
_SVDDELP_ABS= -1.000000000000000    
_SVDDELF_ABS= -1.000000000000000    
_SVDDELS_ABS= -1.000000000000000    
_MAXBASIS=  0.000000000000000    
!OPT_CONICAL=  0.000000000000000    
!CLEARSP_JGRID=  0.000000000000000    
_GRDHYBR=  0.000000000000000    
_STATEGRAD=  1.000000000000000    
_4EXT_NDISKS=  1.000000000000000    
!EMBEDFLAG=  1.000000000000000    
!EMBED=FALSE
!EMBED_F12=FALSE
!EMBEDNUC=  0.000000000000000    
_EMBEDENERGY=  0.000000000000000    
!EMBED_DFC=FALSE
!NUM_VOIDS=  0.000000000000000    
_IBODY=  0.000000000000000    
_EMBE_CORR=  0.000000000000000    
!EMBED_PROJ=FALSE
!EMB_PROJ_ZMU=  1000000.000000000    
!CORRECTION_HF=  0.000000000000000    
!EMBED_AORB=  0.000000000000000    
!EMBED_NACORR=  0.000000000000000    
!EMBED_MP2=FALSE
!EMBED_TRUNC_PERTURBATION=FALSE
!EMBED_FROZEN=  0.000000000000000    
!EMBED_ACTIVE=  0.000000000000000    
_CHANGE_BASIS=FALSE
_RESTORE_BASIS=FALSE
_FIX_EMBED_GUESS=FALSE
_EMBED_SCF=FALSE
_NEOBAS=FALSE
_NEOOVE=FALSE
_PRINEO=FALSE
_HUZINAGA_T=FALSE
_HUZINAGA_F=FALSE
_HUZINAGA=FALSE
_HUZINAGA_CORRECT=FALSE
!FASTLATGRAD=  1.000000000000000    
!FASTVLAMBDA= -1.000000000000000    
!IFORCE= -1.000000000000000    
!USESYM= -1.000000000000000    
_SINDEX=  0.000000000000000    
_AVDOM_OSV=  0.000000000000000    
_AVDOM_PNO=  0.000000000000000    
_AVDOM_PNOCC=  0.000000000000000    
_AVDOM_TNO=  0.000000000000000    
_AVDOM_TNOIT=  0.000000000000000    
_AVDOM_PAO=  0.000000000000000    
_AVDOM_LMO=  0.000000000000000    
_CC2OSV_FLAG=  0.000000000000000    
_EOMCCSD_CONV=FALSE
_TMADC2_FLAG=FALSE
_PROPADC2_FLAG=FALSE
_LEN_VirQ=  0.000000000000000    
_GRDCC2LR_FLAG=FALSE
_GRDADC2_FLAG=FALSE
_RO_VGLOBAL=  0.000000000000000    
_OPT=FALSE
_FREQ=FALSE
_HESS=FALSE
_CMRCC_callName=EMPTY
_CMRCC_callCount=  0.000000000000000    
_GECCO_CIROOT=  1.000000000000000    
_SYM_CATION=  1.000000000000000    
_MON_A=FALSE
_MON_B=FALSE
_MAXGEOM=  100.0000000000000    
!MAXGEOM=  100.0000000000000    
_NCORE=  0.000000000000000    
_NLARGECORE=  0.000000000000000    
GX1= 0.9994633653757276E-01
GY1=  0.000000000000000    
GZ1=-0.4202773477393476E-01
GX2=  1.133203032096939    
GY2=  0.000000000000000    
GZ2=-0.6145442514757741    
GX3= -1.068164463339424    
GY3=  0.000000000000000    
GZ3=-0.6799209052317990    
GX4=-0.8985500812539562    
GY4=  0.000000000000000    
GZ4= -1.610321508970632    
GX5=-0.7768927923794333E-01
GY5=  0.000000000000000    
GZ5=  1.447920655570190    
GX6= 0.8895833259314343    
GY6=  0.000000000000000    
GZ6=  1.927495471058951    
GX7=-0.6441266198089415    
GY7= 0.8758542589067445    
GZ7=  1.743597738583985    
GX8=-0.6441266198089415    
GY8=-0.8758542589067445    
GZ8=  1.743597738583985    
CX1= 0.1888712032156904    
CY1=  0.000000000000000    
CZ1=-0.7942090836114760E-01
OX2=  2.141443374258720    
OY2=  0.000000000000000    
OZ2= -1.161320326752359    
OX3= -2.018538291769375    
OY3=  0.000000000000000    
OZ3= -1.284864297295733    
HX4= -1.698013562830210    
HY4=  0.000000000000000    
HZ4= -3.043066624548596    
CX5=-0.1468114605792880    
CY5=  0.000000000000000    
CZ5=  2.736173489216259    
HX6=  1.681068851044113    
HY6=  0.000000000000000    
HZ6=  3.642438546757955    
HX7= -1.217222901019848    
HY7=  1.655124674420818    
HZ7=  3.294922197440572    
HX8= -1.217222901019848    
HY8= -1.655124674420818    
HZ8=  3.294922197440572    
[Atoms] Angs
C     1    6         0.0999463365        0.0000000000       -0.0420277348
O     2    8         1.1332030321        0.0000000000       -0.6145442515
O     3    8        -1.0681644633        0.0000000000       -0.6799209052
H     4    1        -0.8985500813        0.0000000000       -1.6103215090
C     5    6        -0.0776892792        0.0000000000        1.4479206556
H     6    1         0.8895833259        0.0000000000        1.9274954711
H     7    1        -0.6441266198        0.8758542589        1.7435977386
H     8    1        -0.6441266198       -0.8758542589        1.7435977386
[GTO]
   1 0
 s    6  1.00
  0.4563240000D+04  0.1966650249D-02
  0.6820240000D+03  0.1523060193D-01
  0.1549730000D+03  0.7612690966D-01
  0.4445530000D+02  0.2608010331D+00
  0.1302900000D+02  0.6164620782D+00
  0.1827730000D+01  0.2210060280D+00
 s    3  1.00
  0.2096420000D+02  0.1146600807D+00
  0.4803310000D+01  0.9199996477D+00
  0.1459330000D+01 -0.3030682134D-02
 s    1  1.00
  0.4834560000D+00  0.1000000000D+01
 s    1  1.00
  0.1455850000D+00  0.1000000000D+01
 p    3  1.00
  0.2096420000D+02  0.4024869267D-01
  0.4803310000D+01  0.2375939567D+00
  0.1459330000D+01  0.8158538515D+00
 p    1  1.00
  0.4834560000D+00  0.1000000000D+01
 p    1  1.00
  0.1455850000D+00  0.1000000000D+01
 d    1  1.00
  0.6260000000D+00  0.1000000000D+01
  
   2 0
 s    6  1.00
  0.8588500000D+04  0.1895150083D-02
  0.1297230000D+04  0.1438590063D-01
  0.2992960000D+03  0.7073200310D-01
  0.8737710000D+02  0.2400010105D+00
  0.2567890000D+02  0.5947970261D+00
  0.3740040000D+01  0.2808020123D+00
 s    3  1.00
  0.4211750000D+02  0.1138890124D+00
  0.9628370000D+01  0.9208111006D+00
  0.2853320000D+01 -0.3274470358D-02
 s    1  1.00
  0.9056610000D+00  0.1000000000D+01
 s    1  1.00
  0.2556110000D+00  0.1000000000D+01
 p    3  1.00
  0.4211750000D+02  0.3651139738D-01
  0.9628370000D+01  0.2371529830D+00
  0.2853320000D+01  0.8197019412D+00
 p    1  1.00
  0.9056610000D+00  0.1000000000D+01
 p    1  1.00
  0.2556110000D+00  0.1000000000D+01
 d    1  1.00
  0.1292000000D+01  0.1000000000D+01
  
   3 0
 s    6  1.00
  0.8588500000D+04  0.1895150083D-02
  0.1297230000D+04  0.1438590063D-01
  0.2992960000D+03  0.7073200310D-01
  0.8737710000D+02  0.2400010105D+00
  0.2567890000D+02  0.5947970261D+00
  0.3740040000D+01  0.2808020123D+00
 s    3  1.00
  0.4211750000D+02  0.1138890124D+00
  0.9628370000D+01  0.9208111006D+00
  0.2853320000D+01 -0.3274470358D-02
 s    1  1.00
  0.9056610000D+00  0.1000000000D+01
 s    1  1.00
  0.2556110000D+00  0.1000000000D+01
 p    3  1.00
  0.4211750000D+02  0.3651139738D-01
  0.9628370000D+01  0.2371529830D+00
  0.2853320000D+01  0.8197019412D+00
 p    1  1.00
  0.9056610000D+00  0.1000000000D+01
 p    1  1.00
  0.2556110000D+00  0.1000000000D+01
 d    1  1.00
  0.1292000000D+01  0.1000000000D+01
  
   4 0
 s    3  1.00
  0.3386500000D+02  0.2549381454D-01
  0.5094790000D+01  0.1903731086D+00
  0.1158790000D+01  0.8521614860D+00
 s    1  1.00
  0.3258400000D+00  0.1000000000D+01
 s    1  1.00
  0.1027410000D+00  0.1000000000D+01
 p    1  1.00
  0.7500000000D+00  0.1000000000D+01
  
   5 0
 s    6  1.00
  0.4563240000D+04  0.1966650249D-02
  0.6820240000D+03  0.1523060193D-01
  0.1549730000D+03  0.7612690966D-01
  0.4445530000D+02  0.2608010331D+00
  0.1302900000D+02  0.6164620782D+00
  0.1827730000D+01  0.2210060280D+00
 s    3  1.00
  0.2096420000D+02  0.1146600807D+00
  0.4803310000D+01  0.9199996477D+00
  0.1459330000D+01 -0.3030682134D-02
 s    1  1.00
  0.4834560000D+00  0.1000000000D+01
 s    1  1.00
  0.1455850000D+00  0.1000000000D+01
 p    3  1.00
  0.2096420000D+02  0.4024869267D-01
  0.4803310000D+01  0.2375939567D+00
  0.1459330000D+01  0.8158538515D+00
 p    1  1.00
  0.4834560000D+00  0.1000000000D+01
 p    1  1.00
  0.1455850000D+00  0.1000000000D+01
 d    1  1.00
  0.6260000000D+00  0.1000000000D+01
  
   6 0
 s    3  1.00
  0.3386500000D+02  0.2549381454D-01
  0.5094790000D+01  0.1903731086D+00
  0.1158790000D+01  0.8521614860D+00
 s    1  1.00
  0.3258400000D+00  0.1000000000D+01
 s    1  1.00
  0.1027410000D+00  0.1000000000D+01
 p    1  1.00
  0.7500000000D+00  0.1000000000D+01
  
   7 0
 s    3  1.00
  0.3386500000D+02  0.2549381454D-01
  0.5094790000D+01  0.1903731086D+00
  0.1158790000D+01  0.8521614860D+00
 s    1  1.00
  0.3258400000D+00  0.1000000000D+01
 s    1  1.00
  0.1027410000D+00  0.1000000000D+01
 p    1  1.00
  0.7500000000D+00  0.1000000000D+01
  
   8 0
 s    3  1.00
  0.3386500000D+02  0.2549381454D-01
  0.5094790000D+01  0.1903731086D+00
  0.1158790000D+01  0.8521614860D+00
 s    1  1.00
  0.3258400000D+00  0.1000000000D+01
 s    1  1.00
  0.1027410000D+00  0.1000000000D+01
 p    1  1.00
  0.7500000000D+00  0.1000000000D+01


[MO]
 Sym=      1.1
 Ene=     -20.6025
 Spin= Alpha
 Occup=    2.000000
1 -0.000003917639868
2 -0.000031793396927
3 0.000140152535935
4 0.000382366447542
5 -0.000046336098482
6 0.0
7 -0.000013838954988
8 -0.000250123795993
9 0.0
10 -0.000165733500751
11 -0.000607558222166
12 0.0
13 -0.000138757535806
14 0.000031776464086
15 -0.000035175219549
16 0.000003398755463
17 0.0
18 0.000166741544413
19 0.0
20 -0.000168445576991
21 -0.000142873512544
22 -0.000014721524896
23 0.000247894408106
24 0.000018116153504
25 0.0
26 0.000005377434075
27 -0.000051098175655
28 0.0
29 0.000005031695005
30 0.000053109801489
31 0.0
32 0.000142235171151
33 0.000001476259563
34 -0.000005761177222
35 0.000004284917659
36 0.0
37 -0.000021502334342
38 0.0
39 0.55142523248197
40 0.47165260393322
41 0.005767698722371
42 -0.001168950808111
43 0.001477266767300
44 0.0
45 -0.000706672309090
46 -0.000497079100054
47 0.0
48 0.000306917014766
49 -0.000171934644265
50 0.0
51 -0.000282038340806
52 -0.000018989862706
53 0.000075688375747
54 -0.000056698513042
55 0.0
56 -0.000066808390868
57 0.0
58 0.000211362204093
59 0.000082619851821
60 0.000038413979454
61 0.000043538756965
62 0.0
63 0.000086926520888
64 0.000000955876145
65 0.000000763307383
66 -0.000027852065581
67 0.000096657405526
68 0.000004014059829
69 0.0
70 0.000004607434194
71 -0.000026370286030
72 0.0
73 0.000016313275842
74 0.000049838945742
75 0.0
76 -0.000037114748998
77 -0.000009996003460
78 0.000005330231922
79 0.000004665771537
80 0.0
81 -0.000009204362225
82 0.0
83 -0.000001459398090
84 0.000014919902778
85 0.000025783263098
86 -0.000005628721235
87 0.0
88 -0.000026450476355
89 0.000014881730466
90 -0.000092904149830
91 0.000010094395730
92 -0.000007703425735
93 0.000012904493151
94 0.000031835216483
95 0.000014881730466
96 -0.000092904149830
97 0.000010094395730
98 -0.000007703425735
99 -0.000012904493151
100 0.000031835216483
 Sym=      2.1
 Ene=     -20.5399
 Spin= Alpha
 Occup=    2.000000
1 0.000006353371716
2 -0.000074331202033
3 0.000341913045932
4 0.000435934183837
5 0.000087445217751
6 0.0
7 -0.000054884558648
8 0.000314093732866
9 0.0
10 -0.000162046805896
11 0.000694206249970
12 0.0
13 -0.000418459313970
14 0.000091491328803
15 -0.000046544148262
16 -0.000044947180541
17 0.0
18 -0.000144435200120
19 0.0
20 0.55143906701947
21 0.47167613185257
22 0.005625049559331
23 -0.001288607555379
24 -0.001557323506090
25 0.0
26 0.000777150692154
27 0.000506648049713
28 0.0
29 -0.000245728049107
30 0.000138673038941
31 0.0
32 -0.000085342756647
33 0.000057397316665
34 -0.000152926352000
35 0.000095529035335
36 0.0
37 0.000034839648520
38 0.0
39 0.000171962974516
40 0.000150301364760
41 -0.000023095966579
42 0.000125111436811
43 -0.000014253317917
44 0.0
45 0.000003445773916
46 0.000021613799343
47 0.0
48 -0.000011241895500
49 -0.000047963950403
50 0.0
51 0.000182484453731
52 0.000004985955512
53 -0.000000157850569
54 -0.000004828104943
55 0.0
56 0.000011469846612
57 0.0
58 0.000000934336092
59 0.000051504763254
60 -0.000011999805420
61 -0.000027124697581
62 0.0
63 0.000006565022969
64 0.000000788802563
65 0.000002212272324
66 -0.000005985835027
67 0.000186496320423
68 -0.000000523190415
69 0.0
70 0.000009700637878
71 -0.000001547282679
72 0.0
73 -0.000031162932909
74 -0.000206627942259
75 0.0
76 -0.000100752341859
77 -0.000010104694726
78 -0.000008722576633
79 0.000018827271359
80 0.0
81 0.000008541225157
82 0.0
83 -0.000002583285937
84 0.000042956571149
85 0.000055820416744
86 -0.000012411492016
87 0.0
88 0.000015964622017
89 -0.000002316742520
90 0.000004619943883
91 -0.000029538914254
92 0.000015173105940
93 0.000002105611792
94 -0.000013173113041
95 -0.000002316742520
96 0.000004619943883
97 -0.000029538914254
98 0.000015173105940
99 -0.000002105611792
100 -0.000013173113041
 Sym=      3.1
 Ene=     -11.3805
 Spin= Alpha
 Occup=    2.000000
1 0.56346957404587
2 0.46662348678997
3 0.003705157533102
4 0.000185873711721
5 -0.000702884133865
6 0.0
7 -0.000752973037423
8 0.000877365654429
9 0.0
10 0.000240574669439
11 0.000170000043276
12 0.0
13 -0.000632416333957
14 0.000300949934574
15 -0.000453900827441
16 0.000152950892868
17 0.0
18 -0.000443423234362
19 0.0
20 -0.000227125230449
21 -0.000332488994248
22 0.000655575629138
23 -0.000864779340061
24 -0.000298343663374
25 0.0
26 0.000176880927561
27 -0.000427866176288
28 0.0
29 0.000222057439370
30 0.000404616239565
31 0.0
32 -0.000118204556787
33 0.000133719315151
34 -0.000061439246555
35 -0.000072280068596
36 0.0
37 -0.000191241060189
38 0.0
39 -0.000100628451995
40 -0.000181035232608
41 0.000468265949340
42 0.000073889467951
43 0.000129644874295
44 0.0
45 0.000079143050884
46 0.000571893987775
47 0.0
48 0.000271647778492
49 -0.000058846728740
50 0.0
51 0.000032515861160
52 0.000183714232026
53 -0.000077786387518
54 -0.000105927844507
55 0.0
56 0.000152526152421
57 0.0
58 0.000014321751022
59 -0.000045915033099
60 -0.000099842507335
61 -0.000034491935597
62 0.0
63 0.000024464179811
64 0.001317730018803
65 0.001045813788979
66 0.000244082524621
67 0.000057722842914
68 0.000018417163657
69 0.0
70 -0.000151045991021
71 0.000008814680763
72 0.0
73 -0.000159647663600
74 0.000014189625345
75 0.0
76 -0.000149660496568
77 -0.000069129540776
78 -0.000001834986643
79 0.000070964527419
80 0.0
81 -0.000049099413831
82 0.0
83 0.000009968027629
84 0.000065738738008
85 0.000042886700052
86 -0.000025761334845
87 0.0
88 -0.000022744722512
89 -0.000016081125385
90 0.000063651337774
91 0.000047790955452
92 -0.000001820140083
93 -0.000006480437978
94 -0.000028704065609
95 -0.000016081125385
96 0.000063651337774
97 0.000047790955452
98 -0.000001820140083
99 0.000006480437978
100 -0.000028704065609
 Sym=      4.1
 Ene=     -11.2404
 Spin= Alpha
 Occup=    2.000000
1 -0.001424855546393
2 -0.001251535808232
3 0.000299493076814
4 0.000714855859514
5 -0.000020444453903
6 0.0
7 0.000150319311335
8 -0.000035550883939
9 0.0
10 0.000336900151410
11 0.000022223436497
12 0.0
13 0.000386557292558
14 -0.000112396860126
15 -0.000048917486239
16 0.000161314346365
17 0.0
18 -0.000048890657093
19 0.0
20 0.000003924115184
21 0.000005273623474
22 -0.000002851601108
23 -0.000048459019486
24 0.000000371414292
25 0.0
26 -0.000014556872108
27 0.000007398451180
28 0.0
29 -0.000003895029474
30 -0.000019620627764
31 0.0
32 -0.000058839457929
33 -0.000005954115479
34 -0.000000035236551
35 0.000005989352030
36 0.0
37 -0.000005182671779
38 0.0
39 0.000004587691930
40 0.000007955891803
41 -0.000026312677276
42 -0.000044694351659
43 -0.000008022012147
44 0.0
45 -0.000005410024609
46 0.000005424220049
47 0.0
48 -0.000014113460680
49 0.000000337643897
50 0.0
51 0.000098157048815
52 0.000007505380655
53 0.000000226396191
54 -0.000007731776846
55 0.0
56 0.000011648542353
57 0.0
58 -0.000005258698941
59 0.000129160763066
60 0.000015947046610
61 -0.000000164618054
62 0.0
63 0.000027547540821
64 0.56328619671130
65 0.46651654205442
66 0.004722575343023
67 -0.002000494554968
68 -0.000076342933712
69 0.0
70 -0.000260235163921
71 0.000045163333769
72 0.0
73 0.000216827763427
74 -0.000012817908958
75 0.0
76 0.000267844046187
77 0.000083353721116
78 0.000034731106063
79 -0.000118084827178
80 0.0
81 0.000038851352095
82 0.0
83 0.000354005559973
84 0.000100195448036
85 0.000269028179939
86 0.000032159691489
87 0.0
88 -0.000001806824261
89 0.000348971497797
90 0.000194683667235
91 0.000249165139571
92 -0.000002934788190
93 0.000003968627038
94 -0.000027994303663
95 0.000348971497797
96 0.000194683667235
97 0.000249165139571
98 -0.000002934788190
99 -0.000003968627038
100 -0.000027994303663
 Sym=      5.1
 Ene=      -1.4807
 Spin= Alpha
 Occup=    2.000000
1 -0.063456570430144
2 -0.10285872858024
3 0.26464522116013
4 0.044598259952629
5 0.006751464049928
6 0.0
7 -0.044070522825588
8 -0.006958048255573
9 0.0
10 -0.067126705662083
11 0.000429940286769
12 0.0
13 0.033864625599430
14 0.024129832803646
15 -0.019051875120703
16 -0.005077957682942
17 0.0
18 0.004618560092646
19 0.0
20 -0.059250818853845
21 -0.098793711448074
22 0.27631991150432
23 0.19460691644334
24 -0.039490173335044
25 0.0
26 0.015986881640750
27 -0.064091067741900
28 0.0
29 0.026310835254629
30 -0.029248944727699
31 0.0
32 0.003510159195845
33 0.009986226607359
34 -0.005954661303267
35 -0.004031565304092
36 0.0
37 -0.007966723547550
38 0.0
39 -0.083973641365718
40 -0.14021829913549
41 0.39729856131860
42 0.28345039725728
43 0.036985991318572
44 0.0
45 -0.003895590312857
46 0.062715673221765
47 0.0
48 -0.006365881651919
49 0.032806437105111
50 0.0
51 -0.000100981850426
52 0.005644179757151
53 -0.007299928946417
54 0.001655749189266
55 0.0
56 0.002939480682642
57 0.0
58 0.063993858280795
59 0.047514378782980
60 -0.001011899172580
61 -0.000523025466794
62 0.0
63 0.019384316722548
64 -0.008361953819137
65 -0.013872832181354
66 0.038024235775493
67 -0.024071908786468
68 0.000314072819669
69 0.0
70 -0.008496957918437
71 0.001584000257346
72 0.0
73 -0.023899554564388
74 0.001138683574083
75 0.0
76 0.012187296006575
77 -0.004501506403328
78 -0.002344096905254
79 0.006845603308582
80 0.0
81 -0.001982001099666
82 0.0
83 0.003547470473155
84 0.008187087991482
85 -0.004392520896378
86 -0.002537415005290
87 0.0
88 -0.001218684324083
89 0.003120277270934
90 0.010106164600242
91 -0.000412447507842
92 0.000797896054023
93 -0.002223261110674
94 -0.001364643929623
95 0.003120277270934
96 0.010106164600242
97 -0.000412447507842
98 0.000797896054023
99 0.002223261110674
100 -0.001364643929623
 Sym=      6.1
 Ene=      -1.3722
 Spin= Alpha
 Occup=    2.000000
1 -0.025992312400591
2 -0.041157730455480
3 0.10761977644046
4 0.014465827755651
5 0.10387978908895
6 0.0
7 -0.018662635958454
8 0.15088435743372
9 0.0
10 -0.019781337222770
11 -0.024659945231151
12 0.0
13 -0.002300395984296
14 0.005565802559192
15 -0.004916364238314
16 -0.000649438320878
17 0.0
18 -0.037730557506839
19 0.0
20 -0.087388103052393
21 -0.14565998193783
22 0.40517147570495
23 0.30590817413770
24 -0.041948996681252
25 0.0
26 0.028718403592854
27 -0.061585068847754
28 0.0
29 0.043232750873970
30 -0.025703338453196
31 0.0
32 0.021133333810369
33 0.007580508792348
34 -0.007379335665588
35 -0.000201173126760
36 0.0
37 -0.011416131354647
38 0.0
39 0.072659368784340
40 0.12144289971488
41 -0.34433329174166
42 -0.26752505789146
43 -0.014546289473132
44 0.0
45 0.007782921725030
46 -0.024030279225114
47 0.0
48 0.014059067544692
49 -0.013175563477523
50 0.0
51 -0.008246393548383
52 0.000491683322457
53 0.004514921770919
54 -0.005006605093376
55 0.0
56 -0.002136737655738
57 0.0
58 -0.058387521383686
59 -0.051389041167306
60 0.001548004259324
61 0.003269533254056
62 0.0
63 -0.017743663894160
64 -0.002213326603383
65 -0.003564823108905
66 0.008006392260687
67 0.011297418238256
68 0.004446203399323
69 0.0
70 -0.002296180456856
71 0.009296379640396
72 0.0
73 -0.001101799799347
74 0.009723216517190
75 0.0
76 -0.001916582582221
77 0.001364263816589
78 -0.000231861481810
79 -0.001132402334779
80 0.0
81 -0.004050019233659
82 0.0
83 0.003390382794757
84 -0.000872689185145
85 0.000550976263297
86 0.000096583571169
87 0.0
88 -0.000332990772276
89 -0.000077112153823
90 -0.002475447926788
91 -0.000392893857868
92 -0.000310591295805
93 0.000364059585833
94 0.000606699436972
95 -0.000077112153823
96 -0.002475447926788
97 -0.000392893857868
98 -0.000310591295805
99 -0.000364059585833
100 0.000606699436972
 Sym=      7.1
 Ene=      -1.0280
 Spin= Alpha
 Occup=    2.000000
1 -0.039652705491210
2 -0.066855843364179
3 0.18796018965153
4 0.10459143854293
5 -0.029651170908245
6 0.0
7 0.077780636406844
8 -0.049341182515152
9 0.0
10 0.13086801968771
11 -0.016425954048950
12 0.0
13 0.052109005650625
14 -0.006116830470574
15 -0.007311231576858
16 0.013428062047432
17 0.0
18 -0.000590725946575
19 0.0
20 0.021525585597505
21 0.036257884860463
22 -0.10483162243681
23 -0.086924077186758
24 0.003294415444388
25 0.0
26 0.017968051198673
27 0.004864984295829
28 0.0
29 0.030099335915994
30 -0.003147386200451
31 0.0
32 0.012983439574226
33 -0.003089229752581
34 0.000581269941684
35 0.002507959810897
36 0.0
37 -0.002203438673294
38 0.0
39 0.014261410346516
40 0.023980246114346
41 -0.069112990425453
42 -0.064145729320556
43 0.011468727202096
44 0.0
45 0.052907611041269
46 0.017699496464246
47 0.0
48 0.084427406217473
49 0.011736418761436
50 0.0
51 0.036680009487835
52 0.002481075951179
53 0.000344293726319
54 -0.002825369677497
55 0.0
56 0.007104914918644
57 0.0
58 -0.046771809773477
59 -0.051939435837885
60 -0.002978302896821
61 0.002172146578161
62 0.0
63 -0.010782903183393
64 -0.092814478203991
65 -0.15306599295150
66 0.38848486395663
67 0.19825362207461
68 -0.001055686040245
69 0.0
70 -0.020115198824412
71 -0.000056416787978
72 0.0
73 -0.048861027111512
74 -0.000359055280501
75 0.0
76 0.007766342174422
77 -0.005151466274585
78 -0.003805720164906
79 0.008957186439491
80 0.0
81 -0.001049872290598
82 0.0
83 0.065874380769024
84 0.088361839406915
85 -0.005860990763225
86 -0.015956104237371
87 0.0
88 -0.008409646028459
89 0.068524507074705
90 0.095571756990412
91 -0.004371660454980
92 0.009512777094853
93 -0.014673517132412
94 -0.006321864651184
95 0.068524507074705
96 0.095571756990412