[Molden Format]
[Molpro variables]
_NUMVAR=  1058.000000000000    
_AVOGAD= 0.6022140760000000E+24
_BOLTZ= 0.1380649000000000E-22
_CLIGHTSI=  299792458.0000000    
_JOULE= 0.4359744722207100E-17
_JPCAL=  4.184000000000000    
_PLANCK= 0.6626070150000000E-33
_BOHR= 0.5291772109030000E-10
_ECHARG= 0.1602176634000000E-18
_ENULL= 0.8854187812800001E-11
_MU= 0.1660539066600000E-26
_EMASS= 0.9109383701500001E-30
_AMU2AU=  1822.888486217313    
_CLIGHT=  29979245800.00000    
_EV= 0.3674932217565494E-01
_KJOULE= 0.3808798847133432E-03
_KJOULE/MOL= 0.3808798847133432E-03
_CM= 0.4556335252912009E-05
_CM-1= 0.4556335252912009E-05
_DEB2SI= 0.3335640951981520E-29
_KCAL= 0.1593601437640628E-02
_KCAL/MOL= 0.1593601437640628E-02
_KELVIN= 0.3166811563455608E-05
_HERTZ= 0.1519829846057038E-15
_HZ= 0.1519829846057038E-15
_TOA= 0.5291772109030000    
_TOANG= 0.5291772109030000    
_TORAD= 0.1745329251994330E-01
_TOCM=  219474.6313631965    
_TODEBYE=  2.541746473194078    
_TOE= 0.4803204712570263E-09
_TOEV=  27.21138624598803    
_TOHERTZ=  6579683920501656.    
_TOHZ=  6579683920501656.    
_TOK=  315775.0248040668    
_TOKCAL=  627.5094740630558    
_TOKELVIN=  315775.0248040668    
_TOKJ=  2625.499639479825    
_TOKJOULE=  2625.499639479825    
_TOKG= 0.1660539066600000E-26
_ANG=  1.889726124625770    
_ANGSTROM=  1.889726124625770    
_RPAREF=  0.000000000000000    
_RPADISS=  0.000000000000000    
_IGNORE_UNDEF=  2.000000000000000    
_STRICTCHECK=  0.000000000000000    
!SEWARD=  0.000000000000000    
!MULTI=  0.000000000000000    
!DFMULTI=  0.000000000000000    
!NUMHESS=  0.000000000000000    
_SEW_ONEEL=  0.000000000000000    
_CPPDONE=FALSE
_DKROLL_DONE=  0.000000000000000    
_FNUC_DONE=  0.000000000000000    
_FOCKDONE=TRUE
_GRADONE=FALSE
_HESSDONE=TRUE
_INTDONE=TRUE
_SCFDONE=TRUE
_MODUL_BLOCK=FALSE
_MODUL_SLATER=TRUE
_MODUL_MRCC=FALSE
_MODUL_NBO6=FALSE
_MODUL_NECI=FALSE
_MODUL_AIMS=TRUE
_MODUL_HDF5=FALSE
_MODUL_GECCO=FALSE
_ISWINDOWS=FALSE
_MRCC_EXEC=
_FITC_AO_SAVED=FALSE
_FITC_MO_SAVED=FALSE
_LSTYP=SEWARD
_INTYP=INTS
_GEOMTYP=XYZ
_GRADTYP=ALASKA
_DIRECT=FALSE
_DKHO= -1.000000000000000    
_FNUC=  0.000000000000000    
_SYNCM=  0.000000000000000    
_BASIS=6-311G(D,P)
_ZCENTRE=MASS
_ZORIENT=  1.000000000000000    
_NELEC=  10.00000000000000    
!SPIN=  0.000000000000000    
_OPTCONV= 0.1139528021124215E-02
_QSDSTEP=  0.000000000000000    
_QSDIRC=  0.000000000000000    
_PROGRAM=FREQ
_CPUSTEP= 0.1100000000000000    
_SYSSTEP= 0.1000000000000001E-01
_WALLSTEP= 0.1200000000000000    
!DFSCF=  0.000000000000000    
!SCSGRD=  0.000000000000000    
_NCEN=  3.000000000000000    
_CPUTOT= 0.6100000000000001    
_DFTEXFAC=  1.000000000000000    
_DMX=  0.000000000000000    
_DMY=  0.000000000000000    
_DMZ=-0.8410274725481239    
_DMX_SCF=  0.000000000000000    
_DMY_SCF=  0.000000000000000    
_DMZ_SCF=-0.8410274725481239    
_FREQUENCIES= 0.5692224632836741E-04
_HOMO=  1.200000000000000    
_EHOMO=-0.5006660648419414    
_LUMO=  4.100000000000000    
_ELUMO= 0.1525987519644413    
_ENERGY= -76.04701202780440    
_ENERGY_METHOD=HF
_ENERGY_BASIS=6-311G(D,P)
_GEOMETRY_METHOD=HF
_GEOMETRY_BASIS=6-311G(D,P)
_ENUC=  9.351274058461680    
_GRADENERG= -76.04701190811431    
_GRADEXFAC=  9999.000000000000    
_GRADMETHOD=  1.000000000000000    
_NMRMETHOD=  0.000000000000000    
_NMRMAGNET=  0.000000000000000    
_VIRIAL= 0.2550640431175407E-03
!GRID_FREEZE= -1.000000000000000    
!NEESE_INDEX=  0.000000000000000    
_ITERATIONS=  2.000000000000000    
_LASTNELEC=  10.00000000000000    
_LASTSPIN=  0.000000000000000    
_LASTSYM=  1.000000000000000    
_MPP_PROG=  0.000000000000000    
_MSNSTATES=  0.000000000000000    
_RS2PHASE=  0.000000000000000    
_NPROC_MPP=  1.000000000000000    
_NPROC_SMP=  6.000000000000000    
_NUMSTEP=  0.000000000000000    
_OPTCONVMX= 0.9313364492447938E-03
_OPTCONVRMS= 0.8057679910890200E-03
_OPTGRAD= 0.2259791887749692E-03
_OPTGRADMX= 0.2203379628703009E-03
_OPTGRADRMS= 0.1597914167898157E-03
!GMAXLAST= 0.2203379628703009E-03
!DMAXLAST= 0.9313364492447938E-03
!DELAST= 0.8302276427230026E-05
_OPTSTEP=  3.000000000000000    
_ORBITAL=  2100.200000000000    
_PI=  3.141592653589793    
_SEIG_MIN= 0.1696968036680948E-01
_SEWPROP=TRUE
_STATUS=  1.000000000000000    
_SYSTOT= 0.1700000000000000    
_VERSION=  2024001.000000000    
_WALLTOT= 0.7700000000000000    
_ZPE= 0.1679922203324906E-01
_DATE=22-Sep-24
_LASTORB=0
_OUTPUT=/home/lme/Theoretische_Chemie/Nomodeco/deuterium_calculations/h2o/d2o.molpro/run/d2o_1.molpro/d2o_1.out
_PGROUP=C2v
_TIME=19:47:23
_LIBMOL=/usr/local/molpro/molpro_2024.1.0_sockets/lib/
_VIGRDC=  0.000000000000000    
!VIBCNT=  0.000000000000000    
!SURFREC=  0.000000000000000    
!XSURFREC=  0.000000000000000    
!XPOLYREC=  0.000000000000000    
!ROTREC=  0.000000000000000    
!POLYREC=  0.000000000000000    
!DIPREC=  0.000000000000000    
!DIP4DREC=  0.000000000000000    
!DIPROT=  0.000000000000000    
!DIP4DROT=  0.000000000000000    
!PTREC=  0.000000000000000    
!PT4DREC=  0.000000000000000    
!VSCFREC=  0.000000000000000    
!VCIREC=  0.000000000000000    
!PVCIREC=  0.000000000000000    
!VMP2REC=  0.000000000000000    
!VMCSCFREC=  0.000000000000000    
!VMRCIREC=  0.000000000000000    
!VIBSTATEREC=  0.000000000000000    
!VIBSTATECNT=  0.000000000000000    
!VIBINFO=  0.000000000000000    
!GAREC=  0.000000000000000    
!SCFORB=  21002.00000000000    
!DEFCORE=  1.000000000000000    
!SCORE=  0.000000000000000    
!NEWMOL=  0.000000000000000    
!NEWSYM=  0.000000000000000    
_SLFILES=slscratch
_NGSSTO=  9.000000000000000    
_SIN=SIN
_COS=COS
_TAN=TAN
_ACOS=ACOS
_ASIN=ASIN
_ATAN=ATAN
_COSH=COSH
_SINH=SINH
_TANH=TANH
_ABS=ABS
_MOD=MOD
_ERF=ERF
_REFC=REFC
_ERFC=ERFC
_HYPOT=HYPOT
_J0=J0
_J1=J1
_JN=JN
_GAMMA=GAMMA
_LGAMMA=LGAMMA
_Y0=Y0
_Y1=Y1
_YN=YN
_EXP=EXP
_LOG=LOG
_LOG10=LOG10
_SQRT=SQRT
_INT=INT
_NINT=NINT
_MAX=MAX
_MIN=MIN
_COSMO=  0.000000000000000    
_COSMOIT=  0.000000000000000    
_COSMOES=  0.000000000000000    
_COSMOEDS=  0.000000000000000    
_COSMOEC=  0.000000000000000    
_COSMOEDCORR=  0.000000000000000    
_FEPSI=  1.000000000000000    
_SL_IsMM=  0.000000000000000    
_SL_NSYM=  4.000000000000000    
_SL_System_BitSw=  0.000000000000000    
_SL_Unique_atoms=  0.000000000000000    
_SL_GRAD=  0.000000000000000    
_SL_MAXUPD_Hess=  5.000000000000000    
_SL_N_PRINT_COD=  5.000000000000000    
_SL_PRINT_CODES=  0.000000000000000    
_SL_BasType=  0.000000000000000    
_SL_Energy_Pred=  0.000000000000000    
_SL_New_Coords=  0.000000000000000    
_SL_Total_Nuclea=  0.000000000000000    
_SL_Highest_Mltp=  0.000000000000000    
_SL_Ref_Geom=  0.000000000000000    
_SL_Symmetry_ope=  1.000000000000000    
_SL_agrad=  0.000000000000000    
_SL_GrdMax=  0.000000000000000    
_SL_GrdNorm=  0.000000000000000    
_SL_GrdRMS=  0.000000000000000    
_SL_Hss_Q=  0.000000000000000    
_SL_Hss_X=  0.000000000000000    
_SL_BMxOld=  0.000000000000000    
_SL_KtB=  0.000000000000000    
_SL_TROld=  0.000000000000000    
_SL_No_of_Intern=  0.000000000000000    
_SL_Hess=  0.000000000000000    
_SL_K=  0.000000000000000    
!LATTICE= -1.000000000000000    
!NEWLATTICE=  0.000000000000000    
!LATGRAD_VAR=FALSE
!SEW_LATTICE=  1.000000000000000    
!AIC_ONEEL=  0.000000000000000    
!LOCAL=  0.000000000000000    
!SAVEDOM= -1.000000000000000    
!RESTDOM= -1.000000000000000    
!SAVEDOM_HF= -1.000000000000000    
!RESTDOM_HF= -1.000000000000000    
!HESSREC=  5300.200000000000    
!FREQREC=  5400.200000000000    
!NMODREC=  5450.200000000000    
!GTASKS=  0.000000000000000    
!HTASKS=  0.000000000000000    
!SAVEDOM_EOM= -1.000000000000000    
!RESTDOM_EOM= -1.000000000000000    
!GRADSTATE= -1.000000000000000    
!DEBUG=  0.000000000000000    
!CFIT_CPHF=  0.000000000000000    
!RDOMAUX_CPHF=  0.000000000000000    
!THRAO_CPHF= 0.1000000000000000E-11
!THRMO_CPHF= 0.1000000000000000E-11
!THROV_CPHF= 0.1000000000000000E-13
!THRSW_CPHF= 0.1000000000000000E-11
!THRPROD_CPHF= 0.1000000000000000E-11
!THRAOPR_CPHF= 0.1000000000000000E-11
!CFIT_SCFGRD=  0.000000000000000    
!RDOMAUX_SCFGRD=  0.000000000000000    
!THRAO_SCFGRD= 0.1000000000000000E-11
!THRMO_SCFGRD= 0.1000000000000000E-11
!THROV_SCFGRD= 0.1000000000000000E-13
!THRSW_SCFGRD= 0.1000000000000000E-11
!THRPROD_SCFGRD= 0.1000000000000000E-11
!THRAOPR_SCFGRD= 0.1000000000000000E-11
!LOCFIT_SCF=  0.000000000000000    
!LOCFIT_MP2=  0.000000000000000    
_RIDOM=  0.000000000000000    
!CC2_METHOD=  0.000000000000000    
_BASIS2006=FALSE
_SVDDEL= -1.000000000000000    
_SVDDELA= -1.000000000000000    
_SVDDELP= -1.000000000000000    
_SVDDELF= -1.000000000000000    
_SVDDELS= -1.000000000000000    
_SVDDEL_ABS= -1.000000000000000    
_SVDDELA_ABS= -1.000000000000000    
_SVDDELP_ABS= -1.000000000000000    
_SVDDELF_ABS= -1.000000000000000    
_SVDDELS_ABS= -1.000000000000000    
_MAXBASIS=  0.000000000000000    
!OPT_CONICAL=  0.000000000000000    
!CLEARSP_JGRID=  0.000000000000000    
_GRDHYBR=  0.000000000000000    
_STATEGRAD=  1.000000000000000    
_4EXT_NDISKS=  1.000000000000000    
!EMBEDFLAG=  1.000000000000000    
!EMBED=FALSE
!EMBED_F12=FALSE
!EMBEDNUC=  0.000000000000000    
_EMBEDENERGY=  0.000000000000000    
!EMBED_DFC=FALSE
!NUM_VOIDS=  0.000000000000000    
_IBODY=  0.000000000000000    
_EMBE_CORR=  0.000000000000000    
!EMBED_PROJ=FALSE
!EMB_PROJ_ZMU=  1000000.000000000    
!CORRECTION_HF=  0.000000000000000    
!EMBED_AORB=  0.000000000000000    
!EMBED_NACORR=  0.000000000000000    
!EMBED_MP2=FALSE
!EMBED_TRUNC_PERTURBATION=FALSE
!EMBED_FROZEN=  0.000000000000000    
!EMBED_ACTIVE=  0.000000000000000    
_CHANGE_BASIS=FALSE
_RESTORE_BASIS=FALSE
_FIX_EMBED_GUESS=FALSE
_EMBED_SCF=FALSE
_NEOBAS=FALSE
_NEOOVE=FALSE
_PRINEO=FALSE
_HUZINAGA_T=FALSE
_HUZINAGA_F=FALSE
_HUZINAGA=FALSE
_HUZINAGA_CORRECT=FALSE
!FASTLATGRAD=  1.000000000000000    
!FASTVLAMBDA= -1.000000000000000    
!IFORCE= -1.000000000000000    
!USESYM= -1.000000000000000    
_SINDEX=  0.000000000000000    
_AVDOM_OSV=  0.000000000000000    
_AVDOM_PNO=  0.000000000000000    
_AVDOM_PNOCC=  0.000000000000000    
_AVDOM_TNO=  0.000000000000000    
_AVDOM_TNOIT=  0.000000000000000    
_AVDOM_PAO=  0.000000000000000    
_AVDOM_LMO=  0.000000000000000    
_CC2OSV_FLAG=  0.000000000000000    
_EOMCCSD_CONV=FALSE
_TMADC2_FLAG=FALSE
_PROPADC2_FLAG=FALSE
_LEN_VirQ=  0.000000000000000    
_GRDCC2LR_FLAG=FALSE
_GRDADC2_FLAG=FALSE
_RO_VGLOBAL=  0.000000000000000    
_OPT=FALSE
_FREQ=FALSE
_HESS=FALSE
_CMRCC_callName=EMPTY
_CMRCC_callCount=  0.000000000000000    
_GECCO_CIROOT=  1.000000000000000    
_SYM_CATION=  2.000000000000000    
_MON_A=FALSE
_MON_B=FALSE
_MAXGEOM=  100.0000000000000    
!MAXGEOM=  100.0000000000000    
_NCORE=  0.000000000000000    
_NLARGECORE=  0.000000000000000    
GX1=  0.000000000000000    
GY1=  0.000000000000000    
GZ1= 0.1146041220989368    
GX2=  0.000000000000000    
GY2= 0.7488277224918980    
GZ2=-0.4552128081205882    
GX3=  0.000000000000000    
GY3=-0.7488277224918980    
GZ3=-0.4552128081205882    
O1X1=  0.000000000000000    
O1Y1=  0.000000000000000    
O1Z1= 0.2165704035201624    
H2X2=  0.000000000000000    
H2Y2=  1.415079310036956    
H2Z2=-0.8602275357697335    
H3X3=  0.000000000000000    
H3Y3= -1.415079310036956    
H3Z3=-0.8602275357697335    
[Atoms] Angs
O     1    8         0.0000000000        0.0000000000        0.1146041221
H     2    1         0.0000000000        0.7488277225       -0.4552128081
H     3    1         0.0000000000       -0.7488277225       -0.4552128081
[GTO]
   1 0
 s    6  1.00
  0.8588500000D+04  0.1895150083D-02
  0.1297230000D+04  0.1438590063D-01
  0.2992960000D+03  0.7073200310D-01
  0.8737710000D+02  0.2400010105D+00
  0.2567890000D+02  0.5947970261D+00
  0.3740040000D+01  0.2808020123D+00
 s    3  1.00
  0.4211750000D+02  0.1138890124D+00
  0.9628370000D+01  0.9208111006D+00
  0.2853320000D+01 -0.3274470358D-02
 s    1  1.00
  0.9056610000D+00  0.1000000000D+01
 s    1  1.00
  0.2556110000D+00  0.1000000000D+01
 p    3  1.00
  0.4211750000D+02  0.3651139738D-01
  0.9628370000D+01  0.2371529830D+00
  0.2853320000D+01  0.8197019412D+00
 p    1  1.00
  0.9056610000D+00  0.1000000000D+01
 p    1  1.00
  0.2556110000D+00  0.1000000000D+01
 d    1  1.00
  0.1292000000D+01  0.1000000000D+01
  
   2 0
 s    3  1.00
  0.3386500000D+02  0.2549381454D-01
  0.5094790000D+01  0.1903731086D+00
  0.1158790000D+01  0.8521614860D+00
 s    1  1.00
  0.3258400000D+00  0.1000000000D+01
 s    1  1.00
  0.1027410000D+00  0.1000000000D+01
 p    1  1.00
  0.7500000000D+00  0.1000000000D+01
  
   3 0
 s    3  1.00
  0.3386500000D+02  0.2549381454D-01
  0.5094790000D+01  0.1903731086D+00
  0.1158790000D+01  0.8521614860D+00
 s    1  1.00
  0.3258400000D+00  0.1000000000D+01
 s    1  1.00
  0.1027410000D+00  0.1000000000D+01
 p    1  1.00
  0.7500000000D+00  0.1000000000D+01


[MO]
 Sym=      1.1
 Ene=     -20.5413
 Spin= Alpha
 Occup=    2.000000
1 0.55142989325791
2 0.47167849776895
3 0.005566602170786
4 -0.000465162288376
5 0.0
6 0.0
7 -0.001785220902942
8 0.0
9 0.0
10 0.000617652195167
11 0.0
12 0.0
13 -0.000094627862730
14 0.000115378643043
15 -0.000097568818673
16 -0.000017809824370
17 0.0
18 0.0
19 0.0
20 0.000208611110707
21 0.000083188658497
22 0.000098883398033
23 0.0
24 -0.000070287162535
25 0.000010886320497
26 0.000208611110707
27 0.000083188658497
28 0.000098883398033
29 0.0
30 0.000070287162535
31 0.000010886320497
 Sym=      2.1
 Ene=      -1.3491
 Spin= Alpha
 Occup=    2.000000
1 -0.11335956319558
2 -0.18935720232738
3 0.53787748393454
4 0.37190488246425
5 0.0
6 0.0
7 -0.038031117305562
8 0.0
9 0.0
10 -0.063144693475670
11 0.0
12 0.0
13 -0.020779425134470
14 -0.008344493366750
15 0.005582271175536
16 0.002762222191214
17 0.0
18 0.0
19 0.0
20 0.096562433724582
21 0.081307819561623
22 -0.002674919471308
23 0.0
24 -0.023857767773445
25 0.014411901284465
26 0.096562433724582
27 0.081307819561623
28 -0.002674919471308
29 0.0
30 0.023857767773445
31 0.014411901284465
 Sym=      1.3
 Ene=      -0.7172
 Spin= Alpha
 Occup=    2.000000
1 0.0
2 0.0
3 0.0
4 0.0
5 0.0
6 0.22737895423150
7 0.0
8 0.0
9 0.34886161798562
10 0.0
11 0.0
12 0.21178408149345
13 0.0
14 0.0
15 0.0
16 0.0
17 0.0
18 0.0
19 -0.029327166287759
20 0.15126547783305
21 0.21225549352183
22 0.054487430719701
23 0.0
24 -0.018707319226453
25 0.025670923349761
26 -0.15126547783305
27 -0.21225549352183
28 -0.054487430719701
29 0.0
30 -0.018707319226453
31 -0.025670923349761
 Sym=      3.1
 Ene=      -0.5729
 Spin= Alpha
 Occup=    2.000000
1 -0.038139980898697
2 -0.064860007698794
3 0.19645623132279
4 0.33484728297707
5 0.0
6 0.0
7 0.25569188221279
8 0.0
9 0.0
10 0.37818711961064
11 0.0
12 0.0
13 0.33999297247244
14 0.012876263275420
15 0.004108799266882
16 -0.016985062542302
17 0.0
18 0.0
19 0.0
20 -0.087465151506598
21 -0.14600196800410
22 -0.027263733388701
23 0.0
24 0.029718967497718
25 0.009565755629798
26 -0.087465151506598
27 -0.14600196800410
28 -0.027263733388701
29 0.0
30 -0.029718967497718
31 0.009565755629798
 Sym=      1.2
 Ene=      -0.5007
 Spin= Alpha
 Occup=    2.000000
1 0.0
2 0.0
3 0.0
4 0.0
5 0.29169577477151
6 0.0
7 0.0
8 0.43668226002891
9 0.0
10 0.0
11 0.46587802106447
12 0.0
13 0.0
14 0.0
15 0.0
16 0.0
17 0.0
18 -0.017140398813514
19 0.0
20 0.0
21 0.0
22 0.0
23 0.031532182991208
24 0.0
25 0.0
26 0.0
27 0.0
28 0.0
29 0.031532182991208
30 0.0
31 0.0
 Sym=      4.1
 Ene=       0.1526
 Spin= Alpha
 Occup=    0.000000
1 0.033502817649111
2 0.054636275851554
3 -0.10270012535512
4 -0.85277871000260
5 0.0
6 0.0
7 0.071584824662418
8 0.0
9 0.0
10 0.11395091546346
11 0.0
12 0.0
13 0.19992373986393
14 0.005458371501167
15 -0.000897672829277
16 -0.004560698671889
17 0.0
18 0.0
19 0.0
20 0.034136846237230
21 -0.068274500026851
22 0.84442411157082
23 0.0
24 0.005125092232787
25 0.003810209196332
26 0.034136846237230
27 -0.068274500026851
28 0.84442411157082
29 0.0
30 -0.005125092232787
31 0.003810209196332
 Sym=      2.3
 Ene=       0.2186
 Spin= Alpha
 Occup=    0.000000
1 0.0
2 0.0
3 0.0
4 0.0
5 0.0
6 -0.12023559262161
7 0.0
8 0.0
9 -0.12746371282488
10 0.0
11 0.0
12 -0.49546848760580
13 0.0
14 0.0
15 0.0
16 0.0
17 0.0
18 0.0
19 0.005536355314101
20 0.023623930901652
21 -0.13011044335792
22 1.58002965657183
23 0.0
24 0.008852233230299
25 -0.008184762761394
26 -0.023623930901652
27 0.13011044335792
28 -1.58002965657183
29 0.0
30 0.008852233230299
31 0.008184762761394
 Sym=      3.3
 Ene=       0.5772
 Spin= Alpha
 Occup=    0.000000
1 0.0
2 0.0
3 0.0
4 0.0
5 0.0
6 -0.12034106699600
7 0.0
8 0.0
9 -0.18575176492327
10 0.0
11 0.0
12 -1.17096577861538
13 0.0
14 0.0
15 0.0
16 0.0
17 0.0
18 0.0
19 -0.013019085306699
20 0.079808286793393
21 1.48644424593967
22 -0.72178469814528
23 0.0
24 -0.026218491880383
25 -0.002723316517793
26 -0.079808286793393
27 -1.48644424593967
28 0.72178469814528
29 0.0
30 -0.026218491880383
31 0.002723316517793
 Sym=      5.1
 Ene=       0.6207
 Spin= Alpha
 Occup=    0.000000
1 0.033596362505604
2 0.059028085842035
3 -0.13501003169295
4 -1.48863499842142
5 0.0
6 0.0
7 0.096016389518081
8 0.0
9 0.0
10 0.18558596360656
11 0.0
12 0.0
13 1.08844478277849
14 -0.001401436659030
15 0.012669395578397
16 -0.011267958919366
17 0.0
18 0.0
19 0.0
20 0.062656571188847
21 1.85071382452212
22 -0.60057529705204
23 0.0
24 -0.036897372433275
25 0.044616797923345
26 0.062656571188847
27 1.85071382452212
28 -0.60057529705204
29 0.0
30 0.036897372433275
31 0.044616797923345
 Sym=      6.1
 Ene=       0.9975
 Spin= Alpha
 Occup=    0.000000
1 0.012907922824488
2 0.024136976126809
3 -0.046478491051455
4 -0.95095434537731
5 0.0
6 0.0
7 -0.23503542811751
8 0.0
9 0.0
10 -0.73590312183689
11 0.0
12 0.0
13 1.56769647264649
14 0.013062667641357
15 -0.017642597704894
16 0.004579930063538
17 0.0
18 0.0
19 0.0
20 0.033764896515091
21 0.57476936603803
22 0.11535612473039
23 0.0
24 -0.15198419264512
25 0.099404724695341
26 0.033764896515091
27 0.57476936603803
28 0.11535612473039
29 0.0
30 0.15198419264512
31 0.099404724695341
 Sym=      2.2
 Ene=       1.0031
 Spin= Alpha
 Occup=    0.000000
1 0.0
2 0.0
3 0.0
4 0.0
5 -0.23940067650836
6 0.0
7 0.0
8 -0.83600708065185
9 0.0
10 0.0
11 1.15633071520155
12 0.0
13 0.0
14 0.0
15 0.0
16 0.0
17 0.0
18 0.008395912370015
19 0.0
20 0.0
21 0.0
22 0.0
23 -0.027705698510583
24 0.0
25 0.0
26 0.0
27 0.0
28 0.0
29 -0.027705698510583
30 0.0
31 0.0
 Sym=      4.3
 Ene=       1.1114
 Spin= Alpha
 Occup=    0.000000
1 0.0
2 0.0
3 0.0
4 0.0
5 0.0
6 -0.24104367602952
7 0.0
8 0.0
9 -0.70500261379899
10 0.0
11 0.0
12 1.80249343259843
13 0.0
14 0.0
15 0.0
16 0.0
17 0.0
18 0.0
19 -0.031834524182254
20 -0.019633823635020
21 -0.34715955109790
22 -0.80113215015252
23 0.0
24 0.17439087752562
25 -0.14573612545542
26 0.019633823635020
27 0.34715955109790
28 0.80113215015252
29 0.0
30 0.17439087752562
31 0.14573612545542
 Sym=      7.1
 Ene=       1.3105
 Spin= Alpha
 Occup=    0.000000
1 0.099742191626242
2 0.20421067666992
3 -1.48624480893460
4 3.19028730136859
5 0.0
6 0.0
7 0.028033310443643
8 0.0
9 0.0
10 -0.17804668390144
11 0.0
12 0.0
13 -0.58780333345381
14 -0.035644229502282
15 0.007509887833578
16 0.028134341668704
17 0.0
18 0.0
19 0.0
20 0.008823563992844
21 -0.88715487061382
22 -0.35674545041360
23 0.0
24 0.18388283044026
25 -0.36902135675395
26 0.008823563992844
27 -0.88715487061382
28 -0.35674545041360
29 0.0
30 -0.18388283044026
31 -0.36902135675395
 Sym=      8.1
 Ene=       1.4982
 Spin= Alpha
 Occup=    0.000000
1 0.033436903819581
2 0.069325849117081
3 -0.58498289498094
4 2.05780362437036
5 0.0
6 0.0
7 -0.014848478944194
8 0.0
9 0.0
10 -0.12068038964526
11 0.0
12 0.0
13 -1.24349538096662
14 0.008602966412277
15 0.10786062334550
16 -0.11646358975778
17 0.0
18 0.0
19 0.0
20 0.084223378289619
21 -1.20386888063400
22 0.029171553122879
23 0.0
24 0.59809802173781
25 0.42788253470708
26 0.084223378289619
27 -1.20386888063400
28 0.029171553122879
29 0.0
30 -0.59809802173781
31 0.42788253470708
 Sym=      1.4
 Ene=       1.5159
 Spin= Alpha
 Occup=    0.000000
1 0.0
2 0.0
3 0.0
4 0.0
5 0.0
6 0.0
7 0.0
8 0.0
9 0.0
10 0.0
11 0.0
12 0.0
13 0.0
14 0.0
15 0.0
16 0.0
17 0.12196123912273
18 0.0
19 0.0
20 0.0
21 0.0
22 0.0
23 0.68970689065063
24 0.0
25 0.0
26 0.0
27 0.0
28 0.0
29 -0.68970689065063
30 0.0
31 0.0
 Sym=      3.2
 Ene=       1.7269
 Spin= Alpha
 Occup=    0.000000
1 0.0
2 0.0
3 0.0
4 0.0
5 -0.052895605143215
6 0.0
7 0.0
8 -0.075165166852130
9 0.0
10 0.0
11 -0.55154643459527
12 0.0
13 0.0
14 0.0
15 0.0
16 0.0
17 0.0
18 -0.14547254958326
19 0.0
20 0.0
21 0.0
22 0.0
23 0.77200393561377
24 0.0
25 0.0
26 0.0
27 0.0
28 0.0
29 0.77200393561377
30 0.0
31 0.0
 Sym=      5.3
 Ene=       1.9304
 Spin= Alpha
 Occup=    0.000000
1 0.0
2 0.0
3 0.0
4 0.0
5 0.0
6 0.015159388486693
7 0.0
8 0.0
9 0.027445343162090
10 0.0
11 0.0
12 -0.94917974813290
13 0.0
14 0.0
15 0.0
16 0.0
17 0.0
18 0.0
19 0.079137662306798
20 -0.19090733235477
21 0.78720449143433
22 -0.16049902114682
23 0.0
24 0.48082256592185
25 0.65140077108657
26 0.19090733235477
27 -0.78720449143433
28 0.16049902114682
29 0.0
30 0.48082256592185
31 -0.65140077108657
 Sym=      6.3
 Ene=       2.2775
 Spin= Alpha
 Occup=    0.000000
1 0.0
2 0.0
3 0.0
4 0.0
5 0.0
6 -0.17652959473946
7 0.0
8 0.0
9 -0.46802235309577
10 0.0
11 0.0
12 0.027120675636693
13 0.0
14 0.0
15 0.0
16 0.0
17 0.0
18 0.0
19 -0.25259632201561
20 0.71315274424032
21 -0.74249088604676
22 0.54210909682310
23 0.0
24 -0.24921115268046
25 0.46723891718011
26 -0.71315274424032
27 0.74249088604676
28 -0.54210909682310
29 0.0
30 -0.24921115268046
31 -0.46723891718011
 Sym=      9.1
 Ene=       2.3979
 Spin= Alpha
 Occup=    0.000000
1 0.024145815250229
2 0.042089570305837
3 -0.14352527747122
4 0.41807779436334
5 0.0
6 0.0
7 0.16064713949482
8 0.0
9 0.0
10 0.15931596269057
11 0.0
12 0.0
13 -0.32974522202154
14 -0.29203580423481
15 0.21558836183793
16 0.076447442396879
17 0.0
18 0.0
19 0.0
20 0.94232194550220
21 -1.34182814768448
22 0.43146857335914
23 0.0
24 -0.17345771667912
25 0.033164701298288
26 0.94232194550220
27 -1.34182814768448
28 0.43146857335914
29 0.0
30 0.17345771667912
31 0.033164701298288
 Sym=     10.1
 Ene=       2.6102
 Spin= Alpha
 Occup=    0.000000
1 -0.060073463971417
2 -0.14044283737986
3 1.00828338324040
4 1.83750343503758
5 0.0
6 0.0
7 -0.039617669055469
8 0.0
9 0.0
10 -0.72086879569202
11 0.0
12 0.0
13 -0.73333299464440
14 0.051514645091178
15 -0.004262898857823
16 -0.047251746233355
17 0.0
18 0.0
19 0.0
20 0.43167475385647
21 -1.90342866473735
22 0.21676602702725
23 0.0
24 0.96209602032396
25 -0.67889559061089
26 0.43167475385647
27 -1.90342866473735
28 0.21676602702725
29 0.0
30 -0.96209602032396
31 -0.67889559061089
 Sym=      7.3
 Ene=       2.7685
 Spin= Alpha
 Occup=    0.000000
1 0.0
2 0.0
3 0.0
4 0.0
5 0.0
6 -0.015072658591233
7 0.0
8 0.0
9 -0.97024624810486
10 0.0
11 0.0
12 -0.73231225610348
13 0.0
14 0.0
15 0.0
16 0.0
17 0.0
18 0.0
19 0.23827543788242
20 -0.72892257597551
21 2.13095553428628
22 -0.50209668425790
23 0.0
24 -0.95024155709480
25 0.68788996026993
26 0.72892257597551
27 -2.13095553428628
28 0.50209668425790
29 0.0
30 -0.95024155709480
31 -0.68788996026993
 Sym=      4.2
 Ene=       3.5053
 Spin= Alpha
 Occup=    0.000000
1 0.0
2 0.0
3 0.0
4 0.0
5 -0.023843722807115
6 0.0
7 0.0
8 0.009420066736196
9 0.0
10 0.0
11 -0.27522928365661
12 0.0
13 0.0
14 0.0
15 0.0
16 0.0
17 0.0
18 1.03733642457234
19 0.0
20 0.0
21 0.0
22 0.0
23 0.36683697925895
24 0.0
25 0.0
26 0.0
27 0.0
28 0.0
29 0.36683697925895
30 0.0
31 0.0
 Sym=      2.4
 Ene=       3.5721
 Spin= Alpha
 Occup=    0.000000
1 0.0
2 0.0
3 0.0
4 0.0
5 0.0
6 0.0
7 0.0
8 0.0
9 0.0
10 0.0
11 0.0
12 0.0
13 0.0
14 0.0
15 0.0
16 0.0
17 1.06006489246458
18 0.0
19 0.0
20 0.0
21 0.0
22 0.0
23 -0.35117594740970
24 0.0
25 0.0
26 0.0
27 0.0
28 0.0
29 0.35117594740970
30 0.0
31 0.0
 Sym=     11.1
 Ene=       3.7381
 Spin= Alpha
 Occup=    0.000000
1 -0.002617920072287
2 -0.005334500896809
3 -0.029346191267611
4 0.86147627234840
5 0.0
6 0.0
7 -0.059060507777465
8 0.0
9 0.0
10 -0.050539509598795
11 0.0
12 0.0
13 -0.67661555313938
14 -0.47286361551656
15 -0.61060837932810
16 1.08347199484466
17 0.0
18 0.0
19 0.0
20 -0.027082023962958
21 -0.57235396298311
22 0.028385966938861
23 0.0
24 0.42413542835864
25 0.23274259532083
26 -0.027082023962958
27 -0.57235396298311
28 0.028385966938861
29 0.0
30 -0.42413542835864
31 0.23274259532083
 Sym=     12.1
 Ene=       4.0353
 Spin= Alpha
 Occup=    0.000000
1 0.024613677205940
2 0.049670107083962
3 -0.18782918506903
4 -2.00079312448965
5 0.0
6 0.0
7 0.31727515468861
8 0.0
9 0.0
10 0.13208204082495
11 0.0
12 0.0
13 0.89591436552807
14 0.99798599212129
15 -0.94980372635682
16 -0.048182265764467
17 0.0
18 0.0
19 0.0
20 0.35224789294121
21 1.03747335680579
22 0.059507581353473
23 0.0
24 -0.56005755022912
25 0.48259653629029
26 0.35224789294121
27 1.03747335680579
28 0.059507581353473
29 0.0
30 0.56005755022912
31 0.48259653629029
 Sym=      8.3
 Ene=       4.2823
 Spin= Alpha
 Occup=    0.000000
1 0.0
2 0.0
3 0.0
4 0.0
5 0.0
6 -0.46764842290628
7 0.0
8 0.0
9 0.028051376957297
10 0.0
11 0.0
12 -0.92184987499422
13 0.0
14 0.0
15 0.0
16 0.0
17 0.0
18 0.0
19 1.14893912832587
20 0.44147675275948
21 0.48386900865369
22 0.24465196218681
23 0.0
24 -0.46732084210368
25 0.33994629881139
26 -0.44147675275948
27 -0.48386900865369
28 -0.24465196218681
29 0.0
30 -0.46732084210368
31 -0.33994629881139
 Sym=      5.2
 Ene=       5.3305
 Spin= Alpha
 Occup=    0.000000
1 0.0
2 0.0
3 0.0
4 0.0
5 1.27075925308871
6 0.0
7 0.0
8 -1.37564977528557
9 0.0
10 0.0
11 0.47597958195080
12 0.0
13 0.0
14 0.0
15 0.0
16 0.0
17 0.0
18 0.033345147260627
19 0.0
20 0.0
21 0.0
22 0.0
23 0.065955447173839
24 0.0
25 0.0
26 0.0
27 0.0
28 0.0
29 0.065955447173839
30 0.0
31 0.0
 Sym=     13.1
 Ene=       5.7620
 Spin= Alpha
 Occup=    0.000000
1 -0.024084634233620
2 -0.045614516451479
3 0.26313642695625
4 1.05994915588466
5 0.0
6 0.0
7 1.25924830726887
8 0.0
9 0.0
10 -1.73379303070540
11 0.0
12 0.0
13 0.078070806127387
14 -0.37370748122627
15 0.27605079456759
16 0.097656686658683
17 0.0
18 0.0
19 0.0
20 -0.30701663596817
21 -0.52193442651587
22 -0.014886171877133
23 0.0
24 0.48404232351252
25 -0.26710452567799
26 -0.30701663596817
27 -0.52193442651587
28 -0.014886171877133
29 0.0
30 -0.48404232351252
31 -0.26710452567799
 Sym=      9.3
 Ene=       6.2580
 Spin= Alpha
 Occup=    0.000000
1 0.0
2 0.0
3 0.0
4 0.0
5 0.0
6 -1.25458017573475
7 0.0
8 0.0
9 2.05654246319032
10 0.0
11 0.0
12 -0.13086005962446
13 0.0
14 0.0
15 0.0
16 0.0
17 0.0
18 0.0
19 -0.67850061097278
20 -0.39809592439643
21 -0.51208218171720
22 0.14557722046360
23 0.0
24 0.54698702615241
25 -0.47657111079123
26 0.39809592439643
27 0.51208218171720
28 -0.14557722046360
29 0.0
30 0.54698702615241
31 0.47657111079123
 Sym=     14.1
 Ene=      51.5750
 Spin= Alpha
 Occup=    0.000000
1 -2.24731788379616
2 2.33737782225023
3 -0.27406480529564
4 0.056461989206133
5 0.0
6 0.0
7 -0.019339938970445
8 0.0
9 0.0
10 0.077189635245474
11 0.0
12 0.0
13 0.015742019726009
14 0.026082115663011
15 -0.022712386686124
16 -0.003369728976887
17 0.0
18 0.0
19 0.0
20 0.008747095342482
21 0.077727364519563
22 -0.031125809270705
23 0.0
24 -0.065696753909201
25 0.048152674359600
26 0.008747095342482
27 0.077727364519563
28 -0.031125809270705
29 0.0
30 0.065696753909201
31 0.048152674359600
 [FREQ]
      0.00
      0.00
      0.00
      0.00
      0.00
      0.00
   1281.15
   2986.80
   3106.06
 [FR-COORD]
O          0.0000000000        0.0000000000        0.2165704035
H          0.0000000000        1.4150793100       -0.8602275358
H          0.0000000000       -1.4150793100       -0.8602275358
 [FR-NORM-COORD]
 Vibration                    1
          0.00000000         -0.08591469          0.19796363
         -0.09972634          0.00461722          0.31693659
          0.09941972          0.00461722          0.07899067
 Vibration                    2
         -0.00000000          0.15211196          0.09814730
          0.29848086          0.05471041         -0.02985343
         -0.29845861          0.05471041          0.22614802
 Vibration                    3
         -0.00000000          0.06358604          0.01218490
          0.26015218          0.01092150         -0.05702447
          0.62083081          0.01092150          0.08139427
 Vibration                    4
          0.25000469          0.00000000          0.00000000
          0.00000000          0.00000000         -0.00000000
          0.00000000          0.00000000          0.00000000
 Vibration                    5
          0.00000000         -0.11838564         -0.02348557
          0.57313124         -0.01160432          0.11684162
         -0.10756188         -0.01160432         -0.16381276
 Vibration                    6
          0.00000000         -0.07300477          0.02022522
          0.03646347         -0.33074214         -0.31848161
         -0.02370778         -0.33074214          0.35893205
 Vibration                    7
          0.00000000         -0.00000000         -0.08829543
          0.00000000          0.30707626          0.35071347
         -0.00000000         -0.30707626          0.35071347
 Vibration                    8
          0.00000000          0.00000000          0.06909897
         -0.00000000          0.39238544         -0.27446427
          0.00000000         -0.39238544         -0.27446427
 Vibration                    9
          0.00000000         -0.09270879          0.00000000
         -0.00000000          0.36824355         -0.28021320
          0.00000000          0.36824355          0.28021320
