
 Working directory              : /tmp/lme/molpro.O3bkBRx2xq/
 Global scratch directory       : /tmp/lme/molpro.O3bkBRx2xq/
 Wavefunction directory         : /home/lme/wfu/
 Main file repository           : /tmp/lme/molpro.O3bkBRx2xq/

 id        : liedlgroup

 Nodes     nprocs
 sv1-c724     1
 GA implementation: MPI file
 GA implementation (serial work in mppx): MPI file

 Using customized tuning parameters: mindgm=1; mindgv=20; mindgc=4; mindgr=1; noblas=0; minvec=7
 default implementation of scratch files=df  


 Variables initialized (1042), CPU time= 0.00 sec
 
                  orient,mass
                  geometry=/home/lme/Theoretische_Chemie/Nomodeco/deuterium_calculations/h2o/h2o.xyz
 Including file /home/lme/Theoretische_Chemie/Nomodeco/deuterium_calculations/h2o/h2o.xyz
                  mass, H2=2.014; mass, H3=2.014;                                ! Set custom mass for hydrogen
                  basis=6-311g(d,p)
                  {hf
                  start, atden}
                  optg;
                  {frequencies, symm=auto, print=0, analytical}
                  put, molden, d2o.molden
 Commands initialized (847), CPU time= 0.01 sec, 718 directives.
 Default parameters read. Elapsed time= 0.06 sec

 Checking input...
 Passed
1


                                         ***  PROGRAM SYSTEM MOLPRO  ***
                                       Copyright, TTI GmbH Stuttgart, 2015
                                    Version 2024.1 linked Wed Jan 31 11:42:09 2024


 **********************************************************************************************************************************
 LABEL *                                                                                                                                                                 
  (6 PROC) 64 bit serial version                                                         DATE: 22-Sep-24          TIME: 19:47:23  
 **********************************************************************************************************************************

 SHA1:             675817fde4514a4a933b69e420913a90cee4ef91
 **********************************************************************************************************************************

 Memory per process:        32 MW
 Total memory per node:     32 MW

 GA preallocation disabled
 GA check disabled

 Variable memory set to 32.0 MW

 ZCENTRE=MASS


 Geometry recognized as XYZ


 SETTING MASS FOR H2   (Z=  1)   TO   2.014

 SETTING MASS FOR H3   (Z=  1)   TO   2.014
 SETTING BASIS          =    6-311G(D,P)


 Recomputing integrals since basis changed


 Using spherical harmonics

 Library entry O      S 6-311G               selected for orbital group  1
 Library entry O      P 6-311G               selected for orbital group  1
 Library entry O      D 6-311G*              selected for orbital group  1
 Library entry H      S 6-311G               selected for orbital group  2
 Library entry H      P 6-311G**             selected for orbital group  2


 PROGRAM * SEWARD (Integral evaluation for generally contracted gaussian basis sets)     Author: Roland Lindh, 1990

 Geometry written to block  1 of record 700

 Orientation using atomic masses  
 Molecule type: Asymmetric top,     Order of principal axis = 2
 Symmetry elements: X,Y
 Rotational constants:     147.9899030    452.7847077    219.8448397 GHz  (calculated with average atomic masses)

 Point group  C2v 



 ATOMIC COORDINATES

 NR  ATOM    CHARGE       X              Y              Z

   1  O1      8.00    0.000000000    0.000000000    0.223842312
   2  H2      1.00    0.000000000    1.427593601   -0.889111889
   3  H3      1.00    0.000000000   -1.427593601   -0.889111889

 Bond lengths in Bohr (Angstrom)

 1-2  1.810163126  1-3  1.810163126
     ( 0.957897074)     ( 0.957897074)

 Bond angles

  2-1-3  104.11993072

 NUCLEAR CHARGE:                   10
 NUMBER OF PRIMITIVE AOS:          48
 NUMBER OF SYMMETRY AOS:           47
 NUMBER OF CONTRACTIONS:           30   (   14A1  +    5B1  +    9B2  +    2A2  )
 NUMBER OF INNER CORE ORBITALS:     0   (    0A1  +    0B1  +    0B2  +    0A2  )
 NUMBER OF OUTER CORE ORBITALS:     1   (    1A1  +    0B1  +    0B2  +    0A2  )
 NUMBER OF VALENCE ORBITALS:        6   (    3A1  +    1B1  +    2B2  +    0A2  )


 NUCLEAR REPULSION ENERGY    9.18922213

 Eigenvalues of metric

         1 0.179E-01 0.901E-01 0.115E+00 0.146E+00 0.290E+00 0.441E+00 0.602E+00 0.823E+00
         2 0.215E+00 0.453E+00 0.907E+00 0.119E+01 0.228E+01
         3 0.409E-01 0.982E-01 0.124E+00 0.392E+00 0.552E+00 0.839E+00 0.123E+01 0.154E+01
         4 0.651E+00 0.130E+01


 Contracted 2-electron integrals neglected if value below      1.0D-11
 AO integral compression algorithm  1   Integral accuracy      1.0D-11

     0.524 MB (compressed) written to integral file ( 74.5%)


 NUMBER OF SORTED TWO-ELECTRON INTEGRALS:      32916.     BUFFER LENGTH:  32768
 NUMBER OF SEGMENTS:   1  SEGMENT LENGTH:      32916      RECORD LENGTH: 524288

 Memory used in sort:       0.59 MW

 SORT1 READ       47172. AND WROTE       30106. INTEGRALS IN      1 RECORDS. CPU TIME:     0.00 SEC, REAL TIME:     0.00 SEC
 SORT2 READ       30106. AND WROTE       32916. INTEGRALS IN      2 RECORDS. CPU TIME:     0.01 SEC, REAL TIME:     0.01 SEC

 FILE SIZES:   FILE 1:    30.6 MBYTE,  FILE 4:     4.3 MBYTE,   TOTAL:     34.8 MBYTE

 OPERATOR DM      FOR CENTER  0  COORDINATES:    0.000000    0.000000    0.000000


 **********************************************************************************************************************************
 DATASETS  * FILE   NREC   LENGTH (MB)   RECORD NAMES
              1      19       28.81       500      610      700      900      950      970     1000      129      960     1100   
                                          VAR    BASINP    GEOM    SYMINP    ZMAT    AOBASIS   BASIS     P2S    ABASIS      S 
                                         1400     1410     1200     1210     1080     1600     1650     1300     1700   
                                           T        V       H0       H01     AOSYM     SMH    MOLCAS    ERIS     OPER   

 PROGRAMS   *        TOTAL       INT
 CPU TIMES  *         0.22      0.10
 REAL TIME  *         0.27 SEC
 DISK USED  *        33.55 MB
 **********************************************************************************************************************************


 Program * Restricted Hartree-Fock

 Orbital guess generated from atomic densities.

 Initial occupancy:   3   1   1   0

 NELEC=   10   SYM=1   MS2= 0   THRE=1.0D-08   THRD=1.0D-06   THRG=1.0D-06  HFMA2=F  DIIS_START=2   DIIS_MAX=10   DIIS_INCORE=F

 Level shifts:    0.00 (CLOSED)    0.00 (OPEN)    0.30 (GAP_MIN)

 ITER           ETOT              DE          GRAD        DDIFF     DIIS  NEXP   TIME(IT)  TIME(TOT)  DIAG
   1      -76.00706590     -76.00706590     0.00D+00     0.15D+00     0     0       0.00      0.01    start
   2      -76.03684706      -0.02978116     0.33D-01     0.24D-01     1     0       0.00      0.01    diag
   3      -76.04616045      -0.00931339     0.19D-01     0.81D-02     2     0       0.00      0.01    diag
   4      -76.04636888      -0.00020843     0.19D-02     0.15D-02     3     0       0.00      0.01    diag
   5      -76.04638893      -0.00002005     0.53D-03     0.62D-03     4     0       0.00      0.01    diag
   6      -76.04638961      -0.00000068     0.84D-04     0.11D-03     5     0       0.00      0.01    diag
   7      -76.04638963      -0.00000002     0.15D-04     0.19D-04     6     0       0.00      0.01    diag
   8      -76.04638963      -0.00000000     0.17D-05     0.23D-05     7     0       0.00      0.01    fixocc
   9      -76.04638963      -0.00000000     0.16D-06     0.29D-06     8     0       0.00      0.01    diag
  10      -76.04638963      -0.00000000     0.31D-07     0.24D-07     0     0       0.00      0.01    diag/orth

 Final occupancy:   3   1   1   0

 !RHF STATE 1.1 Energy                -76.046389626080
  RHF One-electron energy            -123.142663676137
  RHF Two-electron energy              37.907051924980
  RHF Kinetic energy                   76.056851790814
  RHF Nuclear energy                    9.189222125077
  RHF Virial quotient                  -0.999862442837

 !RHF STATE 1.1 Dipole moment           0.00000000     0.00000000    -0.85472130
 Dipole moment /Debye                   0.00000000     0.00000000    -2.17248485

 Orbital energies:

           1.1          2.1          3.1          4.1          5.1
    -20.545221    -1.341340    -0.572504     0.150104     0.614375

           1.2          2.2          3.2
     -0.499863     1.003569     1.714721

           1.3          2.3          3.3
     -0.705352     0.216984     0.565833

           1.4          2.4
      1.516151     3.549540


 HOMO      1.2    -0.499863 =     -13.6020eV
 LUMO      4.1     0.150104 =       4.0845eV
 LUMO-HOMO         0.649967 =      17.6865eV

 Orbitals saved in record  2100.2


 **********************************************************************************************************************************
 DATASETS  * FILE   NREC   LENGTH (MB)   RECORD NAMES
              1      19       28.81       500      610      700      900      950      970     1000      129      960     1100   
                                          VAR    BASINP    GEOM    SYMINP    ZMAT    AOBASIS   BASIS     P2S    ABASIS      S 
                                         1400     1410     1200     1210     1080     1600     1650     1300     1700   
                                           T        V       H0       H01     AOSYM     SMH    MOLCAS    ERIS     OPER   

              2       4        0.41       700     1000      520     2100   
                                         GEOM     BASIS   MCVARS     RHF  

 PROGRAMS   *        TOTAL    HF-SCF       INT
 CPU TIMES  *         0.23      0.01      0.10
 REAL TIME  *         0.28 SEC
 DISK USED  *        33.55 MB
 **********************************************************************************************************************************


 PROGRAM * OPT (Geometry optimization)     Authors: F. Eckert and H.-J. Werner


 BFGS update of hessian

 *** Long output written to logfile /home/lme/Theoretische_Chemie/Nomodeco/deuterium_calculations/h2o/d2o.molpro/run/d2o_1.molpro/d2o_1.log ***


 Geometry optimization using default procedure for command HF-SCF

 Geometry written to block  1 of record 700

 PQS Optimization using delocalized internal coordinates

 Point group c2v. Number of degrees of freedom:    2

 ITER.   ENERGY(OLD)    ENERGY(NEW)      DE          GRADMAX     GRADNORM    GRADRMS     STEPMAX     STEPLEN     STEPRMS   CPU-time
   1   -76.04638963   -76.04700361    -0.00061398  0.02179624  0.02595262  0.01835127  0.04498361  0.04819099  0.03407618      0.07
   2   -76.04700361   -76.04701191    -0.00000830  0.00191641  0.00194412  0.00137470  0.00884073  0.01065144  0.00753170      0.14
   3   -76.04701191   -76.04701203    -0.00000012  0.00022034  0.00022598  0.00015979  0.00093134  0.00113953  0.00080577      0.21

 END OF GEOMETRY OPTIMIZATION.

 Geometry written to block  1 of record 700

 Recomputing wavefunction for reoriented structure

 Current geometry (xyz format, in Angstrom)

    3
 HF-SCF000/6-311G(D,P)  ENERGY=-76.04701203
 O          0.0000000000        0.0000000000        0.1146041221
 H          0.0000000000        0.7488277225       -0.4552128081
 H          0.0000000000       -0.7488277225       -0.4552128081

 **********************************************************************************************************************************


 **********************************************************************************************************************************
 DATASETS  * FILE   NREC   LENGTH (MB)   RECORD NAMES
              1      19       28.81       500      610      700      900      950      970     1000      129      960     1100   
                                          VAR    BASINP    GEOM    SYMINP    ZMAT    AOBASIS   BASIS     P2S    ABASIS      S 
                                         1400     1410     1200     1210     1080     1600     1650     1300     1700   
                                           T        V       H0       H01     AOSYM     SMH    MOLCAS    ERIS     OPER   

              2       4        0.41       700     1000      520     2100   
                                         GEOM     BASIS   MCVARS     RHF  

 PROGRAMS   *        TOTAL      OPTG    HF-SCF       INT
 CPU TIMES  *         0.50      0.26      0.01      0.10
 REAL TIME  *         0.65 SEC
 DISK USED  *        33.90 MB
 **********************************************************************************************************************************


 PROGRAM * HESSIAN

 PROGRAM * MCKINLEY (Hessian of the energy)     Author: A. Bernhardsson, R. Lindh

 Orbitals from record         2100.2

 Number of closed-shell orbitals:  5 (  3  1  1  0 )
 Number of occupied orbitals:      5 (  3  1  1  0 )

 Number of electrons= 10     Singlet     Space symmetry=1      Wavefunction type: CLOSED          


 McKinley needed      0.09 seconds of CPU time

 Entering CPHF calculation

 CPHF needed  64 iterations for  9 perturbations.  Total CPU time:    0.01 sec


 HF-SCF hessian saved to record  5300.2

 PROGRAM * FREQUENCIES (Calculation of harmonic vibrational spectra for HF-SCF)


 Permanent Dipole Moment [debye]
     1-   3    0.000000    0.000000    0.000000

 Dipole Moment Norm    0.0000000 [debye]

 Dipole Moment Derivatives [debye/ang]
              1             2             3             4             5             6             7             8
    1    0.00000000    0.00000000    0.00000000    0.00000000    0.00000000    0.00000000    0.00000000    0.00000000
    2    0.00000000    0.00000000    0.00000000    0.00000000    0.00000000    0.00000000    0.00000000    0.00000000
    3    0.00000000    0.00000000    0.00000000    0.00000000    0.00000000    0.00000000    0.00000000    0.00000000
              9
    1    0.00000000
    2    0.00000000
    3    0.00000000

 Projecting out rotations and translations

 Force Constants (Second Derivatives of the Energy) in [a.u.]
                             O1X1        O1Y1        O1Z1        H2X2        H2Y2    
           O1X1          0.0000000
           O1Y1          0.0000000   0.8032680
           O1Z1          0.0000000   0.0000000   0.5365808
           H2X2          0.0000000   0.0000000   0.0000000   0.0000000
           H2Y2          0.0000000  -0.4016340   0.2406836   0.0000000   0.4354117
           H2Z2          0.0000000   0.3056215  -0.2682904   0.0000000  -0.2731525
           H3X3          0.0000000   0.0000000   0.0000000  -0.0000000   0.0000000
           H3Y3          0.0000000  -0.4016340  -0.2406836   0.0000000  -0.0337777
           H3Z3          0.0000000  -0.3056215  -0.2682904   0.0000000   0.0324690
                             H2Z2        H3X3        H3Y3        H3Z3    
           H2Z2          0.2504258
           H3X3          0.0000000   0.0000000
           H3Y3         -0.0324690   0.0000000   0.4354117
           H3Z3          0.0178646   0.0000000   0.2731525   0.2504258


 Atomic Masses
     1-   3   15.999400    2.014000    2.014000

 Mass weighted Second Derivative Matrix
                             O1X1        O1Y1        O1Z1        H2X2        H2Y2    
           O1X1          0.0000000
           O1Y1          0.0000000   0.0502061
           O1Z1          0.0000000   0.0000000   0.0335376
           H2X2          0.0000000   0.0000000   0.0000000   0.0000000
           H2Y2          0.0000000  -0.0707537   0.0423999   0.0000000   0.2161925
           H2Z2          0.0000000   0.0538397  -0.0472632   0.0000000  -0.1356269
           H3X3          0.0000000   0.0000000   0.0000000  -0.0000000   0.0000000
           H3Y3          0.0000000  -0.0707537  -0.0423999   0.0000000  -0.0167715
           H3Z3          0.0000000  -0.0538397  -0.0472632   0.0000000   0.0161216
                             H2Z2        H3X3        H3Y3        H3Z3    
           H2Z2          0.1243425
           H3X3          0.0000000   0.0000000
           H3Y3         -0.0161216   0.0000000   0.2161925
           H3Z3          0.0088702   0.0000000   0.1356269   0.1243425


 Mass Weighted 2nd Derivative Matrix Eigenvalues
     1-   9    0.000000    0.000000    0.000000    0.000000    0.000000    0.000000    0.062114    0.337600    0.365099

 Mass Weighted 2nd Derivative Matrix Eigenvectors
              1             2             3             4             5             6             7             8
    1    0.00000000    0.00000000    0.00000000    1.00000000    0.00000000    0.00000000    0.00000000    0.00000000
    2   -0.34365232    0.60843644    0.25433941    0.00000000   -0.47353368   -0.29201360    0.00000000    0.00000000
    3    0.79183967    0.39258183    0.04873869    0.00000000   -0.09394051    0.08089937   -0.35317509    0.27639070
    4   -0.14152710    0.42359051    0.36919619    0.00000000    0.81336188    0.05174730    0.00000000    0.00000000
    5    0.00655255    0.07764254    0.01549930    0.00000000   -0.01646833   -0.46937426    0.43578872    0.55685563
    6    0.44978204   -0.04236663   -0.08092654    0.00000000    0.16581634   -0.45197467    0.49771666   -0.38950725
    7    0.14109195   -0.42355893    0.88105494    0.00000000   -0.15264695   -0.03364501    0.00000000    0.00000000
    8    0.00655255    0.07764254    0.01549930    0.00000000   -0.01646833   -0.46937426   -0.43578872   -0.55685563
    9    0.11209998    0.32093903    0.11551106    0.00000000   -0.23247565    0.50938010    0.49771666   -0.38950725
              9
    1    0.00000000
    2   -0.37082821
    3    0.00000000
    4    0.00000000
    5    0.52259456
    6   -0.39766587
    7    0.00000000
    8    0.52259456
    9    0.39766587

   Low Vibration      Wavenumber
        Nr             [1/cm] 
        1                0.00
        2                0.00
        3                0.00
        4                0.00
        5                0.00
        6                0.00

     Vibration        Wavenumber
        Nr             [1/cm] 
        1             1281.15
        2             2986.80
        3             3106.06

 FREQUENCIES * CALCULATION OF NORMAL MODES FOR HF-SCF


 Atomic Coordinates

  Nr  Atom  Charge       X              Y              Z

   1   O1    8.00    0.000000000    0.000000000    0.216570404
   2   H2    1.00    0.000000000    1.415079310   -0.860227536
   3   H3    1.00    0.000000000   -1.415079310   -0.860227536

 Gradient norm at reference geometry: 0.21194D-03

 Normal Modes

                              1 A1        2 A1        3 B2 
 Wavenumbers [cm-1]         1281.15     2986.80     3106.06
 Intensities [km/mol]          0.00        0.00        0.00
 Intensities [relative]        0.00        0.00        0.00
           O1X1             0.00000     0.00000     0.00000
           O1Y1            -0.00000     0.00000    -0.09271
           O1Z1            -0.08830     0.06910     0.00000
           H2X2             0.00000    -0.00000    -0.00000
           H2Y2             0.30708     0.39239     0.36824
           H2Z2             0.35071    -0.27446    -0.28021
           H3X3            -0.00000     0.00000     0.00000
           H3Y3            -0.30708    -0.39239     0.36824
           H3Z3             0.35071    -0.27446     0.28021


 Normal Modes of low/zero frequencies

                                  1           2           3           4           5
 Wavenumbers [cm-1]            0.00        0.00        0.00        0.00        0.00
 Intensities [km/mol]          0.00        0.00        0.00        0.00        0.00
 Intensities [relative]        0.00        0.00        0.00        0.00        0.00
           O1X1             0.00000    -0.00000    -0.00000     0.25000     0.00000
           O1Y1            -0.08591     0.15211     0.06359     0.00000    -0.11839
           O1Z1             0.19796     0.09815     0.01218     0.00000    -0.02349
           H2X2            -0.09973     0.29848     0.26015     0.00000     0.57313
           H2Y2             0.00462     0.05471     0.01092     0.00000    -0.01160
           H2Z2             0.31694    -0.02985    -0.05702    -0.00000     0.11684
           H3X3             0.09942    -0.29846     0.62083     0.00000    -0.10756
           H3Y3             0.00462     0.05471     0.01092     0.00000    -0.01160
           H3Z3             0.07899     0.22615     0.08139     0.00000    -0.16381

                                  6
 Wavenumbers [cm-1]            0.00
 Intensities [km/mol]          0.00
 Intensities [relative]        0.00
           O1X1             0.00000
           O1Y1            -0.07300
           O1Z1             0.02023
           H2X2             0.03646
           H2Y2            -0.33074
           H2Z2            -0.31848
           H3X3            -0.02371
           H3Y3            -0.33074
           H3Z3             0.35893


 Frequencies dumped to record   5400.2
 Frequency information read from record  5400.2

 Zero point energy:  0.01679922 [H]     3687.00 [1/CM]       44.11 [KJ/MOL]


 **********************************************************************************************************************************
 DATASETS  * FILE   NREC   LENGTH (MB)   RECORD NAMES
              1      19       28.81       500      610      700      900      950      970     1000      129      960     1100   
                                          VAR    BASINP    GEOM    SYMINP    ZMAT    AOBASIS   BASIS     P2S    ABASIS      S 
                                         1400     1410     1200     1210     1080     1600     1650     1300     1700   
                                           T        V       H0       H01     AOSYM     SMH    MOLCAS    ERIS     OPER   

              2       7        0.42       700     1000      520     2100     5300     5450     5400   
                                         GEOM     BASIS   MCVARS     RHF     HESS     NMOD     FREQ   

              4       5        0.10      4100     4000     4200     4300     4400   

 PROGRAMS   *        TOTAL      FREQ      OPTG    HF-SCF       INT
 CPU TIMES  *         0.61      0.11      0.26      0.01      0.10
 REAL TIME  *         0.77 SEC
 DISK USED  *        33.90 MB
 **********************************************************************************************************************************

 Dump information in style MOLDEN to d2o.molden                                                                      

 Molecular orbitals read from record     2100.2  Type=RHF/CANONICAL  
 Occupation numbers read from record     2100.2  Type=RHF/RHF  
 Orbital energies read from record       2100.2  Type=RHF/CANONICAL  
 Redundancy group numbers read from rec  2100.2  Type=RHF/RHF  

 DUMP ORBITAL  1.1 AS ORBITAL    1  occ=    2.0000  eig=  -20.5413  GROUP=   2
 DUMP ORBITAL  2.1 AS ORBITAL    2  occ=    2.0000  eig=   -1.3491  GROUP=   2
 DUMP ORBITAL  1.3 AS ORBITAL    3  occ=    2.0000  eig=   -0.7172  GROUP=   2
 DUMP ORBITAL  3.1 AS ORBITAL    4  occ=    2.0000  eig=   -0.5729  GROUP=   2
 DUMP ORBITAL  1.2 AS ORBITAL    5  occ=    2.0000  eig=   -0.5007  GROUP=   2

 Total charge:      10.000000
 Frequency information read from record  5400.2

 **********************************************************************************************************************************

 HF/6-311G(D,P)//HF/6-311G(D,P) energy=    -76.047012027804

    OPTG(HF-SCF)          HF-SCF
    -76.04701203    -76.04638963
 **********************************************************************************************************************************
 Molpro calculation terminated
