[Molden Format]
[Molpro variables]
_NUMVAR=  1058.000000000000    
_AVOGAD= 0.6022140760000000E+24
_BOLTZ= 0.1380649000000000E-22
_CLIGHTSI=  299792458.0000000    
_JOULE= 0.4359744722207100E-17
_JPCAL=  4.184000000000000    
_PLANCK= 0.6626070150000000E-33
_BOHR= 0.5291772109030000E-10
_ECHARG= 0.1602176634000000E-18
_ENULL= 0.8854187812800001E-11
_MU= 0.1660539066600000E-26
_EMASS= 0.9109383701500001E-30
_AMU2AU=  1822.888486217313    
_CLIGHT=  29979245800.00000    
_EV= 0.3674932217565494E-01
_KJOULE= 0.3808798847133432E-03
_KJOULE/MOL= 0.3808798847133432E-03
_CM= 0.4556335252912009E-05
_CM-1= 0.4556335252912009E-05
_DEB2SI= 0.3335640951981520E-29
_KCAL= 0.1593601437640628E-02
_KCAL/MOL= 0.1593601437640628E-02
_KELVIN= 0.3166811563455608E-05
_HERTZ= 0.1519829846057038E-15
_HZ= 0.1519829846057038E-15
_TOA= 0.5291772109030000    
_TOANG= 0.5291772109030000    
_TORAD= 0.1745329251994330E-01
_TOCM=  219474.6313631965    
_TODEBYE=  2.541746473194078    
_TOE= 0.4803204712570263E-09
_TOEV=  27.21138624598803    
_TOHERTZ=  6579683920501656.    
_TOHZ=  6579683920501656.    
_TOK=  315775.0248040668    
_TOKCAL=  627.5094740630558    
_TOKELVIN=  315775.0248040668    
_TOKJ=  2625.499639479825    
_TOKJOULE=  2625.499639479825    
_TOKG= 0.1660539066600000E-26
_ANG=  1.889726124625770    
_ANGSTROM=  1.889726124625770    
_RPAREF=  0.000000000000000    
_RPADISS=  0.000000000000000    
_IGNORE_UNDEF=  2.000000000000000    
_STRICTCHECK=  0.000000000000000    
!SEWARD=  0.000000000000000    
!MULTI=  0.000000000000000    
!DFMULTI=  0.000000000000000    
!NUMHESS=  0.000000000000000    
_SEW_ONEEL=  0.000000000000000    
_CPPDONE=FALSE
_DKROLL_DONE=  0.000000000000000    
_FNUC_DONE=  0.000000000000000    
_FOCKDONE=TRUE
_GRADONE=FALSE
_HESSDONE=TRUE
_INTDONE=TRUE
_SCFDONE=TRUE
_MODUL_BLOCK=FALSE
_MODUL_SLATER=TRUE
_MODUL_MRCC=FALSE
_MODUL_NBO6=FALSE
_MODUL_NECI=FALSE
_MODUL_AIMS=TRUE
_MODUL_HDF5=FALSE
_MODUL_GECCO=FALSE
_ISWINDOWS=FALSE
_MRCC_EXEC=
_FITC_AO_SAVED=FALSE
_FITC_MO_SAVED=FALSE
_LSTYP=SEWARD
_INTYP=INTS
_GEOMTYP=XYZ
_GRADTYP=ALASKA
_DIRECT=FALSE
_DKHO= -1.000000000000000    
_FNUC=  0.000000000000000    
_SYNCM=  0.000000000000000    
_BASIS=6-311G(D,P)
_ZCENTRE=MASS
_ZORIENT=  1.000000000000000    
_NELEC=  10.00000000000000    
!SPIN=  0.000000000000000    
_OPTCONV= 0.1139528012457493E-02
_QSDSTEP=  0.000000000000000    
_QSDIRC=  0.000000000000000    
_PROGRAM=FREQ
_CPUSTEP= 0.1100000000000000    
_SYSSTEP= 0.9999999999999981E-02
_WALLSTEP= 0.1200000000000000    
!DFSCF=  0.000000000000000    
!SCSGRD=  0.000000000000000    
_NCEN=  3.000000000000000    
_CPUTOT= 0.6000000000000001    
_DFTEXFAC=  1.000000000000000    
_DMX=  0.000000000000000    
_DMY=  0.000000000000000    
_DMZ=-0.8410274725648109    
_DMX_SCF=  0.000000000000000    
_DMY_SCF=  0.000000000000000    
_DMZ_SCF=-0.8410274725648109    
_FREQUENCIES= 0.4133035599936279E-04
_HOMO=  1.200000000000000    
_EHOMO=-0.5006660648414797    
_LUMO=  4.100000000000000    
_ELUMO= 0.1525987519654478    
_ENERGY= -76.04701202780524    
_ENERGY_METHOD=HF
_ENERGY_BASIS=6-311G(D,P)
_GEOMETRY_METHOD=HF
_GEOMETRY_BASIS=6-311G(D,P)
_ENUC=  9.351274058471819    
_GRADENERG= -76.04701190811799    
_GRADEXFAC=  9999.000000000000    
_GRADMETHOD=  1.000000000000000    
_NMRMETHOD=  0.000000000000000    
_NMRMAGNET=  0.000000000000000    
_VIRIAL= 0.2550640471207262E-03
!GRID_FREEZE= -1.000000000000000    
!NEESE_INDEX=  0.000000000000000    
_ITERATIONS=  2.000000000000000    
_LASTNELEC=  10.00000000000000    
_LASTSPIN=  0.000000000000000    
_LASTSYM=  1.000000000000000    
_MPP_PROG=  0.000000000000000    
_MSNSTATES=  0.000000000000000    
_RS2PHASE=  0.000000000000000    
_NPROC_MPP=  1.000000000000000    
_NPROC_SMP=  6.000000000000000    
_NUMSTEP=  0.000000000000000    
_OPTCONVMX= 0.9313364443026796E-03
_OPTCONVRMS= 0.8057679849607217E-03
_OPTGRAD= 0.2259791880655275E-03
_OPTGRADMX= 0.2203379626532311E-03
_OPTGRADRMS= 0.1597914162881646E-03
!GMAXLAST= 0.2203379626532311E-03
!DMAXLAST= 0.9313364443026796E-03
!DELAST= 0.8302280107841398E-05
_OPTSTEP=  3.000000000000000    
_ORBITAL=  2100.200000000000    
_PI=  3.141592653589793    
_SEIG_MIN= 0.1696968036679385E-01
_SEWPROP=TRUE
_STATUS=  1.000000000000000    
_SYSTOT= 0.1500000000000000    
_VERSION=  2024001.000000000    
_WALLTOT= 0.7600000000000000    
_ZPE= 0.2307877039632171E-01
_DATE=21-Sep-24
_LASTORB=0
_OUTPUT=/home/lme/Theoretische_Chemie/Nomodeco/deuterium_calculations/h2o/h2o.molpro/run/h2o_1.molpro/h2o_1.out
_PGROUP=C2v
_TIME=23:05:48
_LIBMOL=/usr/local/molpro/molpro_2024.1.0_sockets/lib/
_VIGRDC=  0.000000000000000    
!VIBCNT=  0.000000000000000    
!SURFREC=  0.000000000000000    
!XSURFREC=  0.000000000000000    
!XPOLYREC=  0.000000000000000    
!ROTREC=  0.000000000000000    
!POLYREC=  0.000000000000000    
!DIPREC=  0.000000000000000    
!DIP4DREC=  0.000000000000000    
!DIPROT=  0.000000000000000    
!DIP4DROT=  0.000000000000000    
!PTREC=  0.000000000000000    
!PT4DREC=  0.000000000000000    
!VSCFREC=  0.000000000000000    
!VCIREC=  0.000000000000000    
!PVCIREC=  0.000000000000000    
!VMP2REC=  0.000000000000000    
!VMCSCFREC=  0.000000000000000    
!VMRCIREC=  0.000000000000000    
!VIBSTATEREC=  0.000000000000000    
!VIBSTATECNT=  0.000000000000000    
!VIBINFO=  0.000000000000000    
!GAREC=  0.000000000000000    
!SCFORB=  21002.00000000000    
!DEFCORE=  1.000000000000000    
!SCORE=  0.000000000000000    
!NEWMOL=  0.000000000000000    
!NEWSYM=  0.000000000000000    
_SLFILES=slscratch
_NGSSTO=  9.000000000000000    
_SIN=SIN
_COS=COS
_TAN=TAN
_ACOS=ACOS
_ASIN=ASIN
_ATAN=ATAN
_COSH=COSH
_SINH=SINH
_TANH=TANH
_ABS=ABS
_MOD=MOD
_ERF=ERF
_REFC=REFC
_ERFC=ERFC
_HYPOT=HYPOT
_J0=J0
_J1=J1
_JN=JN
_GAMMA=GAMMA
_LGAMMA=LGAMMA
_Y0=Y0
_Y1=Y1
_YN=YN
_EXP=EXP
_LOG=LOG
_LOG10=LOG10
_SQRT=SQRT
_INT=INT
_NINT=NINT
_MAX=MAX
_MIN=MIN
_COSMO=  0.000000000000000    
_COSMOIT=  0.000000000000000    
_COSMOES=  0.000000000000000    
_COSMOEDS=  0.000000000000000    
_COSMOEC=  0.000000000000000    
_COSMOEDCORR=  0.000000000000000    
_FEPSI=  1.000000000000000    
_SL_IsMM=  0.000000000000000    
_SL_NSYM=  4.000000000000000    
_SL_System_BitSw=  0.000000000000000    
_SL_Unique_atoms=  0.000000000000000    
_SL_GRAD=  0.000000000000000    
_SL_MAXUPD_Hess=  5.000000000000000    
_SL_N_PRINT_COD=  5.000000000000000    
_SL_PRINT_CODES=  0.000000000000000    
_SL_BasType=  0.000000000000000    
_SL_Energy_Pred=  0.000000000000000    
_SL_New_Coords=  0.000000000000000    
_SL_Total_Nuclea=  0.000000000000000    
_SL_Highest_Mltp=  0.000000000000000    
_SL_Ref_Geom=  0.000000000000000    
_SL_Symmetry_ope=  1.000000000000000    
_SL_agrad=  0.000000000000000    
_SL_GrdMax=  0.000000000000000    
_SL_GrdNorm=  0.000000000000000    
_SL_GrdRMS=  0.000000000000000    
_SL_Hss_Q=  0.000000000000000    
_SL_Hss_X=  0.000000000000000    
_SL_BMxOld=  0.000000000000000    
_SL_KtB=  0.000000000000000    
_SL_TROld=  0.000000000000000    
_SL_No_of_Intern=  0.000000000000000    
_SL_Hess=  0.000000000000000    
_SL_K=  0.000000000000000    
!LATTICE= -1.000000000000000    
!NEWLATTICE=  0.000000000000000    
!LATGRAD_VAR=FALSE
!SEW_LATTICE=  1.000000000000000    
!AIC_ONEEL=  0.000000000000000    
!LOCAL=  0.000000000000000    
!SAVEDOM= -1.000000000000000    
!RESTDOM= -1.000000000000000    
!SAVEDOM_HF= -1.000000000000000    
!RESTDOM_HF= -1.000000000000000    
!HESSREC=  5300.200000000000    
!FREQREC=  5400.200000000000    
!NMODREC=  5450.200000000000    
!GTASKS=  0.000000000000000    
!HTASKS=  0.000000000000000    
!SAVEDOM_EOM= -1.000000000000000    
!RESTDOM_EOM= -1.000000000000000    
!GRADSTATE= -1.000000000000000    
!DEBUG=  0.000000000000000    
!CFIT_CPHF=  0.000000000000000    
!RDOMAUX_CPHF=  0.000000000000000    
!THRAO_CPHF= 0.1000000000000000E-11
!THRMO_CPHF= 0.1000000000000000E-11
!THROV_CPHF= 0.1000000000000000E-13
!THRSW_CPHF= 0.1000000000000000E-11
!THRPROD_CPHF= 0.1000000000000000E-11
!THRAOPR_CPHF= 0.1000000000000000E-11
!CFIT_SCFGRD=  0.000000000000000    
!RDOMAUX_SCFGRD=  0.000000000000000    
!THRAO_SCFGRD= 0.1000000000000000E-11
!THRMO_SCFGRD= 0.1000000000000000E-11
!THROV_SCFGRD= 0.1000000000000000E-13
!THRSW_SCFGRD= 0.1000000000000000E-11
!THRPROD_SCFGRD= 0.1000000000000000E-11
!THRAOPR_SCFGRD= 0.1000000000000000E-11
!LOCFIT_SCF=  0.000000000000000    
!LOCFIT_MP2=  0.000000000000000    
_RIDOM=  0.000000000000000    
!CC2_METHOD=  0.000000000000000    
_BASIS2006=FALSE
_SVDDEL= -1.000000000000000    
_SVDDELA= -1.000000000000000    
_SVDDELP= -1.000000000000000    
_SVDDELF= -1.000000000000000    
_SVDDELS= -1.000000000000000    
_SVDDEL_ABS= -1.000000000000000    
_SVDDELA_ABS= -1.000000000000000    
_SVDDELP_ABS= -1.000000000000000    
_SVDDELF_ABS= -1.000000000000000    
_SVDDELS_ABS= -1.000000000000000    
_MAXBASIS=  0.000000000000000    
!OPT_CONICAL=  0.000000000000000    
!CLEARSP_JGRID=  0.000000000000000    
_GRDHYBR=  0.000000000000000    
_STATEGRAD=  1.000000000000000    
_4EXT_NDISKS=  1.000000000000000    
!EMBEDFLAG=  1.000000000000000    
!EMBED=FALSE
!EMBED_F12=FALSE
!EMBEDNUC=  0.000000000000000    
_EMBEDENERGY=  0.000000000000000    
!EMBED_DFC=FALSE
!NUM_VOIDS=  0.000000000000000    
_IBODY=  0.000000000000000    
_EMBE_CORR=  0.000000000000000    
!EMBED_PROJ=FALSE
!EMB_PROJ_ZMU=  1000000.000000000    
!CORRECTION_HF=  0.000000000000000    
!EMBED_AORB=  0.000000000000000    
!EMBED_NACORR=  0.000000000000000    
!EMBED_MP2=FALSE
!EMBED_TRUNC_PERTURBATION=FALSE
!EMBED_FROZEN=  0.000000000000000    
!EMBED_ACTIVE=  0.000000000000000    
_CHANGE_BASIS=FALSE
_RESTORE_BASIS=FALSE
_FIX_EMBED_GUESS=FALSE
_EMBED_SCF=FALSE
_NEOBAS=FALSE
_NEOOVE=FALSE
_PRINEO=FALSE
_HUZINAGA_T=FALSE
_HUZINAGA_F=FALSE
_HUZINAGA=FALSE
_HUZINAGA_CORRECT=FALSE
!FASTLATGRAD=  1.000000000000000    
!FASTVLAMBDA= -1.000000000000000    
!IFORCE= -1.000000000000000    
!USESYM= -1.000000000000000    
_SINDEX=  0.000000000000000    
_AVDOM_OSV=  0.000000000000000    
_AVDOM_PNO=  0.000000000000000    
_AVDOM_PNOCC=  0.000000000000000    
_AVDOM_TNO=  0.000000000000000    
_AVDOM_TNOIT=  0.000000000000000    
_AVDOM_PAO=  0.000000000000000    
_AVDOM_LMO=  0.000000000000000    
_CC2OSV_FLAG=  0.000000000000000    
_EOMCCSD_CONV=FALSE
_TMADC2_FLAG=FALSE
_PROPADC2_FLAG=FALSE
_LEN_VirQ=  0.000000000000000    
_GRDCC2LR_FLAG=FALSE
_GRDADC2_FLAG=FALSE
_RO_VGLOBAL=  0.000000000000000    
_OPT=FALSE
_FREQ=FALSE
_HESS=FALSE
_CMRCC_callName=EMPTY
_CMRCC_callCount=  0.000000000000000    
_GECCO_CIROOT=  1.000000000000000    
_SYM_CATION=  2.000000000000000    
_MON_A=FALSE
_MON_B=FALSE
_MAXGEOM=  100.0000000000000    
!MAXGEOM=  100.0000000000000    
_NCORE=  0.000000000000000    
_NLARGECORE=  0.000000000000000    
GX1=  0.000000000000000    
GY1=  0.000000000000000    
GZ1= 0.6377100408810801E-01
GX2=  0.000000000000000    
GY2= 0.7488277224934412    
GZ2=-0.5060459261275121    
GX3=  0.000000000000000    
GY3=-0.7488277224934412    
GZ3=-0.5060459261275121    
OX1=  0.000000000000000    
OY1=  0.000000000000000    
OZ1= 0.1205097324189145    
HX2=  0.000000000000000    
HY2=  1.415079310039872    
HZ2=-0.9562882068636022    
HX3=  0.000000000000000    
HY3= -1.415079310039872    
HZ3=-0.9562882068636022    
[Atoms] Angs
O     1    8         0.0000000000        0.0000000000        0.0637710041
H     2    1         0.0000000000        0.7488277225       -0.5060459261
H     3    1         0.0000000000       -0.7488277225       -0.5060459261
[GTO]
   1 0
 s    6  1.00
  0.8588500000D+04  0.1895150083D-02
  0.1297230000D+04  0.1438590063D-01
  0.2992960000D+03  0.7073200310D-01
  0.8737710000D+02  0.2400010105D+00
  0.2567890000D+02  0.5947970261D+00
  0.3740040000D+01  0.2808020123D+00
 s    3  1.00
  0.4211750000D+02  0.1138890124D+00
  0.9628370000D+01  0.9208111006D+00
  0.2853320000D+01 -0.3274470358D-02
 s    1  1.00
  0.9056610000D+00  0.1000000000D+01
 s    1  1.00
  0.2556110000D+00  0.1000000000D+01
 p    3  1.00
  0.4211750000D+02  0.3651139738D-01
  0.9628370000D+01  0.2371529830D+00
  0.2853320000D+01  0.8197019412D+00
 p    1  1.00
  0.9056610000D+00  0.1000000000D+01
 p    1  1.00
  0.2556110000D+00  0.1000000000D+01
 d    1  1.00
  0.1292000000D+01  0.1000000000D+01
  
   2 0
 s    3  1.00
  0.3386500000D+02  0.2549381454D-01
  0.5094790000D+01  0.1903731086D+00
  0.1158790000D+01  0.8521614860D+00
 s    1  1.00
  0.3258400000D+00  0.1000000000D+01
 s    1  1.00
  0.1027410000D+00  0.1000000000D+01
 p    1  1.00
  0.7500000000D+00  0.1000000000D+01
  
   3 0
 s    3  1.00
  0.3386500000D+02  0.2549381454D-01
  0.5094790000D+01  0.1903731086D+00
  0.1158790000D+01  0.8521614860D+00
 s    1  1.00
  0.3258400000D+00  0.1000000000D+01
 s    1  1.00
  0.1027410000D+00  0.1000000000D+01
 p    1  1.00
  0.7500000000D+00  0.1000000000D+01


[MO]
 Sym=      1.1
 Ene=     -20.5413
 Spin= Alpha
 Occup=    2.000000
1 0.55142989325790
2 0.47167849776897
3 0.005566602170781
4 -0.000465162288888
5 0.0
6 0.0
7 -0.001785220902953
8 0.0
9 0.0
10 0.000617652195262
11 0.0
12 0.0
13 -0.000094627862493
14 0.000115378643108
15 -0.000097568818731
16 -0.000017809824376
17 0.0
18 0.0
19 0.0
20 0.000208611110747
21 0.000083188658806
22 0.000098883398035
23 0.0
24 -0.000070287162673
25 0.000010886320564
26 0.000208611110747
27 0.000083188658806
28 0.000098883398035
29 0.0
30 0.000070287162673
31 0.000010886320564
 Sym=      2.1
 Ene=      -1.3491
 Spin= Alpha
 Occup=    2.000000
1 -0.11335956319555
2 -0.18935720232734
3 0.53787748393494
4 0.37190488245610
5 0.0
6 0.0
7 -0.038031117305769
8 0.0
9 0.0
10 -0.063144693476831
11 0.0
12 0.0
13 -0.020779425130664
14 -0.008344493366400
15 0.005582271175467
16 0.002762222190933
17 0.0
18 0.0
19 0.0
20 0.096562433724821
21 0.081307819566087
22 -0.002674919471081
23 0.0
24 -0.023857767774869
25 0.014411901285248
26 0.096562433724821
27 0.081307819566087
28 -0.002674919471081
29 0.0
30 0.023857767774869
31 0.014411901285248
 Sym=      1.3
 Ene=      -0.7172
 Spin= Alpha
 Occup=    2.000000
1 0.0
2 0.0
3 0.0
4 0.0
5 0.0
6 0.22737895423173
7 0.0
8 0.0
9 0.34886161798267
10 0.0
11 0.0
12 0.21178408149751
13 0.0
14 0.0
15 0.0
16 0.0
17 0.0
18 0.0
19 -0.029327166287379
20 0.15126547783485
21 0.21225549351781
22 0.054487430720483
23 0.0
24 -0.018707319228454
25 0.025670923349483
26 -0.15126547783485
27 -0.21225549351781
28 -0.054487430720483
29 0.0
30 -0.018707319228454
31 -0.025670923349483
 Sym=      3.1
 Ene=      -0.5729
 Spin= Alpha
 Occup=    2.000000
1 -0.038139980898795
2 -0.064860007699169
3 0.19645623132706
4 0.33484728296062
5 0.0
6 0.0
7 0.25569188221384
8 0.0
9 0.0
10 0.37818711960915
11 0.0
12 0.0
13 0.33999297248606
14 0.012876263275854
15 0.004108799267421
16 -0.016985062543275
17 0.0
18 0.0
19 0.0
20 -0.087465151506866
21 -0.14600196799229
22 -0.027263733387930
23 0.0
24 0.029718967495789
25 0.009565755626215
26 -0.087465151506866
27 -0.14600196799229
28 -0.027263733387930
29 0.0
30 -0.029718967495789
31 0.009565755626215
 Sym=      1.2
 Ene=      -0.5007
 Spin= Alpha
 Occup=    2.000000
1 0.0
2 0.0
3 0.0
4 0.0
5 0.29169577477145
6 0.0
7 0.0
8 0.43668226002864
9 0.0
10 0.0
11 0.46587802106407
12 0.0
13 0.0
14 0.0
15 0.0
16 0.0
17 0.0
18 -0.017140398813235
19 0.0
20 0.0
21 0.0
22 0.0
23 0.031532182992027
24 0.0
25 0.0
26 0.0
27 0.0
28 0.0
29 0.031532182992027
30 0.0
31 0.0
 Sym=      4.1
 Ene=       0.1526
 Spin= Alpha
 Occup=    0.000000
1 0.033502817649394
2 0.054636275852266
3 -0.10270012536029
4 -0.85277870997782
5 0.0
6 0.0
7 0.071584824661559
8 0.0
9 0.0
10 0.11395091546206
11 0.0
12 0.0
13 0.19992373984592
14 0.005458371499645
15 -0.000897672828449
16 -0.004560698671196
17 0.0
18 0.0
19 0.0
20 0.034136846237687
21 -0.068274500043516
22 0.84442411157248
23 0.0
24 0.005125092236480
25 0.003810209194021
26 0.034136846237687
27 -0.068274500043516
28 0.84442411157248
29 0.0
30 -0.005125092236480
31 0.003810209194021
 Sym=      2.3
 Ene=       0.2186
 Spin= Alpha
 Occup=    0.000000
1 0.0
2 0.0
3 0.0
4 0.0
5 0.0
6 -0.12023559262081
7 0.0
8 0.0
9 -0.12746371282210
10 0.0
11 0.0
12 -0.49546848760170
13 0.0
14 0.0
15 0.0
16 0.0
17 0.0
18 0.0
19 0.005536355313914
20 0.023623930899408
21 -0.13011044336193
22 1.58002965657150
23 0.0
24 0.008852233231261
25 -0.008184762762739
26 -0.023623930899408
27 0.13011044336193
28 -1.58002965657150
29 0.0
30 0.008852233231261
31 0.008184762762739
 Sym=      3.3
 Ene=       0.5772
 Spin= Alpha
 Occup=    0.000000
1 0.0
2 0.0
3 0.0
4 0.0
5 0.0
6 -0.12034106699260
7 0.0
8 0.0
9 -0.18575176495340
10 0.0
11 0.0
12 -1.17096577863085
13 0.0
14 0.0
15 0.0
16 0.0
17 0.0
18 0.0
19 -0.013019085296710
20 0.079808286786136
21 1.48644424597938
22 -0.72178469814366
23 0.0
24 -0.026218491909597
25 -0.002723316508502
26 -0.079808286786136
27 -1.48644424597938
28 0.72178469814366
29 0.0
30 -0.026218491909597
31 0.002723316508502
 Sym=      5.1
 Ene=       0.6207
 Spin= Alpha
 Occup=    0.000000
1 0.033596362505856
2 0.059028085842329
3 -0.13501003169447
4 -1.48863499839907
5 0.0
6 0.0
7 0.096016389517702
8 0.0
9 0.0
10 0.18558596360616
11 0.0
12 0.0
13 1.08844478275690
14 -0.001401436657524
15 0.012669395585571
16 -0.011267958928048
17 0.0
18 0.0
19 0.0
20 0.062656571190616
21 1.85071382450381
22 -0.60057529704874
23 0.0
24 -0.036897372428511
25 0.044616797913655
26 0.062656571190616
27 1.85071382450381
28 -0.60057529704874
29 0.0
30 0.036897372428511
31 0.044616797913655
 Sym=      6.1
 Ene=       0.9975
 Spin= Alpha
 Occup=    0.000000
1 0.012907922824650
2 0.024136976127393
3 -0.046478491054483
4 -0.95095434540312
5 0.0
6 0.0
7 -0.23503542811678
8 0.0
9 0.0
10 -0.73590312182750
11 0.0
12 0.0
13 1.56769647261726
14 0.013062667644598
15 -0.017642597704438
16 0.004579930059840
17 0.0
18 0.0
19 0.0
20 0.033764896518359
21 0.57476936603547
22 0.11535612473958
23 0.0
24 -0.15198419263587
25 0.099404724733326
26 0.033764896518359
27 0.57476936603547
28 0.11535612473958
29 0.0
30 0.15198419263587
31 0.099404724733326
 Sym=      2.2
 Ene=       1.0031
 Spin= Alpha
 Occup=    0.000000
1 0.0
2 0.0
3 0.0
4 0.0
5 -0.23940067650838
6 0.0
7 0.0
8 -0.83600708065177
9 0.0
10 0.0
11 1.15633071520214
12 0.0
13 0.0
14 0.0
15 0.0
16 0.0
17 0.0
18 0.008395912369665
19 0.0
20 0.0
21 0.0
22 0.0
23 -0.027705698511519
24 0.0
25 0.0
26 0.0
27 0.0
28 0.0
29 -0.027705698511519
30 0.0
31 0.0
 Sym=      4.3
 Ene=       1.1114
 Spin= Alpha
 Occup=    0.000000
1 0.0
2 0.0
3 0.0
4 0.0
5 0.0
6 -0.24104367603119
7 0.0
8 0.0
9 -0.70500261378697
10 0.0
11 0.0
12 1.80249343260485
13 0.0
14 0.0
15 0.0
16 0.0
17 0.0
18 0.0
19 -0.031834524186134
20 -0.019633823628850
21 -0.34715955112018
22 -0.80113215014685
23 0.0
24 0.17439087753914
25 -0.14573612545774
26 0.019633823628850
27 0.34715955112018
28 0.80113215014685
29 0.0
30 0.17439087753914
31 0.14573612545774
 Sym=      7.1
 Ene=       1.3105
 Spin= Alpha
 Occup=    0.000000
1 0.099742191626116
2 0.20421067666992
3 -1.48624480893091
4 3.19028730130261
5 0.0
6 0.0
7 0.028033310431090
8 0.0
9 0.0
10 -0.17804668390711
11 0.0
12 0.0
13 -0.58780333338834
14 -0.035644229502907
15 0.007509887826213
16 0.028134341676695
17 0.0
18 0.0
19 0.0
20 0.008823563989796
21 -0.88715487056813
22 -0.35674545041515
23 0.0
24 0.18388283042182
25 -0.36902135674986
26 0.008823563989796
27 -0.88715487056813
28 -0.35674545041515
29 0.0
30 -0.18388283042182
31 -0.36902135674986
 Sym=      8.1
 Ene=       1.4982
 Spin= Alpha
 Occup=    0.000000
1 0.033436903819436
2 0.069325849116705
3 -0.58498289498719
4 2.05780362450657
5 0.0
6 0.0
7 -0.014848478916101
8 0.0
9 0.0
10 -0.12068038964443
11 0.0
12 0.0
13 -1.24349538105444
14 0.008602966411166
15 0.10786062333877
16 -0.11646358974994
17 0.0
18 0.0
19 0.0
20 0.084223378286951
21 -1.20386888070274
22 0.029171553111396
23 0.0
24 0.59809802176667
25 0.42788253469374
26 0.084223378286951
27 -1.20386888070274
28 0.029171553111396
29 0.0
30 -0.59809802176667
31 0.42788253469374
 Sym=      1.4
 Ene=       1.5159
 Spin= Alpha
 Occup=    0.000000
1 0.0
2 0.0
3 0.0
4 0.0
5 0.0
6 0.0
7 0.0
8 0.0
9 0.0
10 0.0
11 0.0
12 0.0
13 0.0
14 0.0
15 0.0
16 0.0
17 0.12196123912239
18 0.0
19 0.0
20 0.0
21 0.0
22 0.0
23 0.68970689065037
24 0.0
25 0.0
26 0.0
27 0.0
28 0.0
29 -0.68970689065037
30 0.0
31 0.0
 Sym=      3.2
 Ene=       1.7269
 Spin= Alpha
 Occup=    0.000000
1 0.0
2 0.0
3 0.0
4 0.0
5 -0.052895605144018
6 0.0
7 0.0
8 -0.075165166854116
9 0.0
10 0.0
11 -0.55154643459542
12 0.0
13 0.0
14 0.0
15 0.0
16 0.0
17 0.0
18 -0.14547254958345
19 0.0
20 0.0
21 0.0
22 0.0
23 0.77200393561452
24 0.0
25 0.0
26 0.0
27 0.0
28 0.0
29 0.77200393561452
30 0.0
31 0.0
 Sym=      5.3
 Ene=       1.9304
 Spin= Alpha
 Occup=    0.000000
1 0.0
2 0.0
3 0.0
4 0.0
5 0.0
6 0.015159388488504
7 0.0
8 0.0
9 0.027445343157631
10 0.0
11 0.0
12 -0.94917974816892
13 0.0
14 0.0
15 0.0
16 0.0
17 0.0
18 0.0
19 0.079137662308693
20 -0.19090733235070
21 0.78720449146654
22 -0.16049902114960
23 0.0
24 0.48082256591269
25 0.65140077109356
26 0.19090733235070
27 -0.78720449146654
28 0.16049902114960
29 0.0
30 0.48082256591269
31 -0.65140077109356
 Sym=      6.3
 Ene=       2.2775
 Spin= Alpha
 Occup=    0.000000
1 0.0
2 0.0
3 0.0
4 0.0
5 0.0
6 -0.17652959474250
7 0.0
8 0.0
9 -0.46802235308232
10 0.0
11 0.0
12 0.027120675644945
13 0.0
14 0.0
15 0.0
16 0.0
17 0.0
18 0.0
19 -0.25259632202047
20 0.71315274424922
21 -0.74249088607556
22 0.54210909683451
23 0.0
24 -0.24921115267208
25 0.46723891716901
26 -0.71315274424922
27 0.74249088607556
28 -0.54210909683451
29 0.0
30 -0.24921115267208
31 -0.46723891716901
 Sym=      9.1
 Ene=       2.3979
 Spin= Alpha
 Occup=    0.000000
1 0.024145815250772
2 0.042089570307405
3 -0.14352527748494
4 0.41807779439202
5 0.0
6 0.0
7 0.16064713949690
8 0.0
9 0.0
10 0.15931596269268
11 0.0
12 0.0
13 -0.32974522204239
14 -0.29203580425039
15 0.21558836182359
16 0.076447442426800
17 0.0
18 0.0
19 0.0
20 0.94232194549615
21 -1.34182814769229
22 0.43146857335614
23 0.0
24 -0.17345771667073
25 0.033164701310131
26 0.94232194549615
27 -1.34182814769229
28 0.43146857335614
29 0.0
30 0.17345771667073
31 0.033164701310131
 Sym=     10.1
 Ene=       2.6102
 Spin= Alpha
 Occup=    0.000000
1 -0.060073463970424
2 -0.14044283737671
3 1.00828338322984
4 1.83750343500193
5 0.0
6 0.0
7 -0.039617669082030
8 0.0
9 0.0
10 -0.72086879565540
11 0.0
12 0.0
13 -0.73333299463125
14 0.051514645104164
15 -0.004262898909570
16 -0.047251746194593
17 0.0
18 0.0
19 0.0
20 0.43167475387925
21 -1.90342866473489
22 0.21676602703567
23 0.0
24 0.96209602031226
25 -0.67889559058519
26 0.43167475387925
27 -1.90342866473489
28 0.21676602703567
29 0.0
30 -0.96209602031226
31 -0.67889559058519
 Sym=      7.3
 Ene=       2.7685
 Spin= Alpha
 Occup=    0.000000
1 0.0
2 0.0
3 0.0
4 0.0
5 0.0
6 -0.015072658585844
7 0.0
8 0.0
9 -0.97024624815432
10 0.0
11 0.0
12 -0.73231225609578
13 0.0
14 0.0
15 0.0
16 0.0
17 0.0
18 0.0
19 0.23827543792630
20 -0.72892257594555
21 2.13095553427259
22 -0.50209668423888
23 0.0
24 -0.95024155712318
25 0.68788996029193
26 0.72892257594555
27 -2.13095553427259
28 0.50209668423888
29 0.0
30 -0.95024155712318
31 -0.68788996029193
 Sym=      4.2
 Ene=       3.5053
 Spin= Alpha
 Occup=    0.000000
1 0.0
2 0.0
3 0.0
4 0.0
5 -0.023843722808721
6 0.0
7 0.0
8 0.009420066736579
9 0.0
10 0.0
11 -0.27522928365678
12 0.0
13 0.0
14 0.0
15 0.0
16 0.0
17 0.0
18 1.03733642457206
19 0.0
20 0.0
21 0.0
22 0.0
23 0.36683697925880
24 0.0
25 0.0
26 0.0
27 0.0
28 0.0
29 0.36683697925880
30 0.0
31 0.0
 Sym=      2.4
 Ene=       3.5721
 Spin= Alpha
 Occup=    0.000000
1 0.0
2 0.0
3 0.0
4 0.0
5 0.0
6 0.0
7 0.0
8 0.0
9 0.0
10 0.0
11 0.0
12 0.0
13 0.0
14 0.0
15 0.0
16 0.0
17 1.06006489246542
18 0.0
19 0.0
20 0.0
21 0.0
22 0.0
23 -0.35117594741094
24 0.0
25 0.0
26 0.0
27 0.0
28 0.0
29 0.35117594741094
30 0.0
31 0.0
 Sym=     11.1
 Ene=       3.7381
 Spin= Alpha
 Occup=    0.000000
1 -0.002617920071954
2 -0.005334500895282
3 -0.029346191281980
4 0.86147627225131
5 0.0
6 0.0
7 -0.059060507763754
8 0.0
9 0.0
10 -0.050539509596788
11 0.0
12 0.0
13 -0.67661555308671
14 -0.47286361552642
15 -0.61060837932008
16 1.08347199484651
17 0.0
18 0.0
19 0.0
20 -0.027082024011466
21 -0.57235396286051
22 0.028385966914439
23 0.0
24 0.42413542833225
25 0.23274259534066
26 -0.027082024011466
27 -0.57235396286051
28 0.028385966914439
29 0.0
30 -0.42413542833225
31 0.23274259534066
 Sym=     12.1
 Ene=       4.0353
 Spin= Alpha
 Occup=    0.000000
1 0.024613677206880
2 0.049670107085829
3 -0.18782918508740
4 -2.00079312451098
5 0.0
6 0.0
7 0.31727515473123
8 0.0
9 0.0
10 0.13208204079173
11 0.0
12 0.0
13 0.89591436554219
14 0.99798599210250
15 -0.94980372635802
16 -0.048182265744477
17 0.0
18 0.0
19 0.0
20 0.35224789292314
21 1.03747335684030
22 0.059507581347961
23 0.0
24 -0.56005755024127
25 0.48259653629663
26 0.35224789292314
27 1.03747335684030
28 0.059507581347961
29 0.0
30 0.56005755024127
31 0.48259653629663
 Sym=      8.3
 Ene=       4.2823
 Spin= Alpha
 Occup=    0.000000
1 0.0
2 0.0
3 0.0
4 0.0
5 0.0
6 -0.46764842288956
7 0.0
8 0.0
9 0.028051376957935
10 0.0
11 0.0
12 -0.92184987496678
13 0.0
14 0.0
15 0.0
16 0.0
17 0.0
18 0.0
19 1.14893912832683
20 0.44147675278900
21 0.48386900858923
22 0.24465196220342
23 0.0
24 -0.46732084208359
25 0.33994629879186
26 -0.44147675278900
27 -0.48386900858923
28 -0.24465196220342
29 0.0
30 -0.46732084208359
31 -0.33994629879186
 Sym=      5.2
 Ene=       5.3305
 Spin= Alpha
 Occup=    0.000000
1 0.0
2 0.0
3 0.0
4 0.0
5 1.27075925308868
6 0.0
7 0.0
8 -1.37564977528576
9 0.0
10 0.0
11 0.47597958195010
12 0.0
13 0.0
14 0.0
15 0.0
16 0.0
17 0.0
18 0.033345147261787
19 0.0
20 0.0
21 0.0
22 0.0
23 0.065955447174815
24 0.0
25 0.0
26 0.0
27 0.0
28 0.0
29 0.065955447174815
30 0.0
31 0.0
 Sym=     13.1
 Ene=       5.7620
 Spin= Alpha
 Occup=    0.000000
1 -0.024084634236220
2 -0.045614516456014
3 0.26313642698993
4 1.05994915596953
5 0.0
6 0.0
7 1.25924830725799
8 0.0
9 0.0
10 -1.73379303072532
11 0.0
12 0.0
13 0.078070806106061
14 -0.37370748124961
15 0.27605079460730
16 0.097656686642311
17 0.0
18 0.0
19 0.0
20 -0.30701663597204
21 -0.52193442657350
22 -0.014886171877509
23 0.0
24 0.48404232354340
25 -0.26710452571722
26 -0.30701663597204
27 -0.52193442657350
28 -0.014886171877509
29 0.0
30 -0.48404232354340
31 -0.26710452571722
 Sym=      9.3
 Ene=       6.2580
 Spin= Alpha
 Occup=    0.000000
1 0.0
2 0.0
3 0.0
4 0.0
5 0.0
6 -1.25458017574142
7 0.0
8 0.0
9 2.05654246318242
10 0.0
11 0.0
12 -0.13086005965544
13 0.0
14 0.0
15 0.0
16 0.0
17 0.0
18 0.0
19 -0.67850061095379
20 -0.39809592440861
21 -0.51208218166540
22 0.14557722045299
23 0.0
24 0.54698702613509
25 -0.47657111077380
26 0.39809592440861
27 0.51208218166540
28 -0.14557722045299
29 0.0
30 0.54698702613509
31 0.47657111077380
 Sym=     14.1
 Ene=      51.5750
 Spin= Alpha
 Occup=    0.000000
1 -2.24731788379615
2 2.33737782225035
3 -0.27406480529649
4 0.056461989203789
5 0.0
6 0.0
7 -0.019339938970642
8 0.0
9 0.0
10 0.077189635246170
11 0.0
12 0.0
13 0.015742019726777
14 0.026082115663419
15 -0.022712386686727
16 -0.003369728976692
17 0.0
18 0.0
19 0.0
20 0.008747095342628
21 0.077727364521373
22 -0.031125809270887
23 0.0
24 -0.065696753910355
25 0.048152674359833
26 0.008747095342628
27 0.077727364521373
28 -0.031125809270887
29 0.0
30 0.065696753910355
31 0.048152674359833
 [FREQ]
      0.00
      0.00
      0.00
      0.00
      0.00
      0.00
   1750.94
   4142.10
   4237.37
 [FR-COORD]
O          0.0000000000        0.0000000000        0.1205097324
H          0.0000000000        1.4150793100       -0.9562882069
H          0.0000000000       -1.4150793100       -0.9562882069
 [FR-NORM-COORD]
 Vibration                    1
          0.00000000          0.06344422         -0.07792913
          0.55362771         -0.15578255         -0.36602707
         -0.54661187         -0.15578255          0.21016881
 Vibration                    2
          0.00000000          0.00382533          0.00130428
          0.70445824          0.00954574          0.00882178
          0.70385825          0.00954574         -0.00621323
 Vibration                    3
          0.25003978         -0.00000000         -0.00000000
         -0.00000000         -0.00000000         -0.00000000
         -0.00000000         -0.00000000          0.00000000
 Vibration                    4
          0.00000000          0.17814645          0.03591667
          0.11333491          0.38062187          0.30200074
         -0.14599456          0.38062187         -0.23016740
 Vibration                    5
         -0.00000000          0.14612650         -0.05054442
         -0.41237692         -0.11746362         -0.39694268
          0.41238366         -0.11746362          0.29585384
 Vibration                    6
          0.00000000          0.02775283          0.21354996
          0.08106277         -0.14872515         -0.01836944
         -0.08160939         -0.14872515          0.44546936
 Vibration                    7
          0.00000000         -0.00000000         -0.06772101
         -0.00000000          0.41344473          0.53739064
          0.00000000         -0.41344473          0.53739064
 Vibration                    8
          0.00000000         -0.00000000          0.04909961
          0.00000000          0.57024673         -0.38962315
         -0.00000000         -0.57024673         -0.38962315
 Vibration                    9
          0.00000000         -0.06797613          0.00000000
         -0.00000000          0.53941513         -0.41046540
          0.00000000          0.53941513          0.41046540
