
 Working directory              : /tmp/lme/molpro.UpxaJKUcAZ/
 Global scratch directory       : /tmp/lme/molpro.UpxaJKUcAZ/
 Wavefunction directory         : /home/lme/wfu/
 Main file repository           : /tmp/lme/molpro.UpxaJKUcAZ/

 id        : liedlgroup

 Nodes     nprocs
 sv1-c724     6
 GA implementation: MPI file
 GA implementation (serial work in mppx): MPI file

 Using customized tuning parameters: mindgm=1; mindgv=20; mindgc=4; mindgr=1; noblas=0; minvec=7
 default implementation of scratch files=sf  


 Variables initialized (1042), CPU time= 0.00 sec
 ***,Methanol_Water
 memory, 100, m                                                                  ! Memory Requirements
                           !gthresh, optgrad=1.d-7,twoint=1.d-14,prefac=1.d-16 ! Guntram Rezept um numerischen Schmutz zu entfernen
 orient,mass
 geometry = {
 O,    -0.00001000,   0.00000000,   0.00000000
 H,    -0.41668700,   0.79887300,   0.32577000
 H,     0.92901700,   0.11075700,   0.24094900
 O,     2.84195300,   0.09647200,   0.38637500
 H,     3.20993600,  -0.47560600,   1.06390400
 C,     3.30695800,  -0.37515800,  -0.87578400
 H,     2.87614100,   0.27593600,  -1.62889800
 H,     4.39292200,  -0.32436500,  -0.95009600
 H,     2.97861600,  -1.39502800,  -1.07486400
 }
 
 mass, iso
 basis=6-311g(d,p)
 
 {hf
 start,atden}
 
 optg
 {frequencies, symm=auto, print=0,analytical}
 put,molden,methanol_water.molden
 Commands initialized (847), CPU time= 0.01 sec, 718 directives.
 Default parameters read. Elapsed time= 0.07 sec

 Checking input...
 Passed
1


                                         ***  PROGRAM SYSTEM MOLPRO  ***
                                       Copyright, TTI GmbH Stuttgart, 2015
                                    Version 2024.1 linked Wed Jan 31 11:42:09 2024


 **********************************************************************************************************************************
 LABEL *   Methanol_Water                                                                                                                                                
  (6 PROC) 64 bit mpp version                                                            DATE: 18-Oct-24          TIME: 16:40:24  
 **********************************************************************************************************************************

 SHA1:             675817fde4514a4a933b69e420913a90cee4ef91
 **********************************************************************************************************************************

 Memory per process:       100 MW
 Total memory per node:    600 MW

 GA preallocation disabled
 GA check disabled

 Variable memory set to 100.0 MW

 ZCENTRE=MASS


 Geometry recognized as XYZ



 Using masses of most abundant isotopes

 **********************************************************************************************************************************
 SETTING BASIS          =    6-311G(D,P)


 Recomputing integrals since basis changed


 Using spherical harmonics

 Library entry O      S 6-311G               selected for orbital group  1
 Library entry O      P 6-311G               selected for orbital group  1
 Library entry O      D 6-311G*              selected for orbital group  1
 Library entry H      S 6-311G               selected for orbital group  2
 Library entry H      P 6-311G**             selected for orbital group  2
 Library entry C      S 6-311G               selected for orbital group  5
 Library entry C      P 6-311G               selected for orbital group  5
 Library entry C      D 6-311G*              selected for orbital group  5


 PROGRAM * SEWARD (Integral evaluation for generally contracted gaussian basis sets)     Author: Roland Lindh, 1990

 Geometry written to block  1 of record 700

 Orientation using atomic masses  
 Molecule type: Asymmetric top
 Rotational constants:       3.8655863      4.3201684     27.0125947 GHz

 Point group  C1  



 ATOMIC COORDINATES

 NR  ATOM    CHARGE       X              Y              Z

   1  O       8.00   -0.093420146   -0.322439278   -3.742900327
   2  H       1.00    1.122465275    0.576041944   -4.739088693
   3  H       1.00    0.044214729    0.446178269   -2.092576689
   4  O       8.00    0.092764924    1.269666884    1.437783814
   5  H       1.00   -1.294393649    2.269878249    2.043528705
   6  C       6.00    0.006349096   -1.101368562    2.712966466
   7  H       1.00    1.573796519   -2.211259120    1.996482085
   8  H       1.00    0.229799707   -0.880730248    4.748093586
   9  H       1.00   -1.741081340   -2.119487520    2.324595492

 Bond lengths in Bohr (Angstrom)

 1-2  1.810535037  1-3  1.825728459  4-5  1.814265293  4-6  2.693578953  6-7  2.049902032
     ( 0.958093881)     ( 0.966133894)     ( 0.960067848)     ( 1.425380598)     ( 1.084761440)

 6-8  2.059211946  6-9  2.059347313
     ( 1.089688034)     ( 1.089759667)

 Bond angles

  2-1-3  103.75740642   4-6-7  106.65458050   4-6-8  111.72059176   4-6-9  111.90878589

  5-4-6  107.61952620   7-6-8  108.69151788   7-6-9  108.37487180   8-6-9  109.35576399

 NUCLEAR CHARGE:                   28
 NUMBER OF PRIMITIVE AOS:         144
 NUMBER OF SYMMETRY AOS:          141
 NUMBER OF CONTRACTIONS:           90   (   90A   )
 NUMBER OF INNER CORE ORBITALS:     0   (    0A   )
 NUMBER OF OUTER CORE ORBITALS:     3   (    3A   )
 NUMBER OF VALENCE ORBITALS:       18   (   18A   )


 NUCLEAR REPULSION ENERGY   79.98337153


 Eigenvalues of metric

         1 0.866E-02 0.147E-01 0.205E-01 0.219E-01 0.227E-01 0.352E-01 0.401E-01 0.434E-01


 Contracted 2-electron integrals neglected if value below      1.0D-11
 AO integral compression algorithm  1   Integral accuracy      1.0D-11

     29.098 MB (compressed) written to integral file ( 38.3%)

     Node minimum: 4.194 MB, node maximum: 5.505 MB


 NUMBER OF SORTED TWO-ELECTRON INTEGRALS:    1397418.     BUFFER LENGTH:  32768
 NUMBER OF SEGMENTS:   1  SEGMENT LENGTH:    1397418      RECORD LENGTH: 524288

 Memory used in sort:       1.95 MW

 SORT1 READ     9616507. AND WROTE     1060532. INTEGRALS IN      4 RECORDS. CPU TIME:     0.10 SEC, REAL TIME:     0.11 SEC
 SORT2 READ     6255236. AND WROTE     8386560. INTEGRALS IN    126 RECORDS. CPU TIME:     0.03 SEC, REAL TIME:     0.04 SEC

 Node minimum:     1396054.  Node maximum:     1399467. integrals

 OPERATOR DM      FOR CENTER  0  COORDINATES:    0.000000    0.000000    0.000000


 **********************************************************************************************************************************
 DATASETS  * FILE   NREC   LENGTH (MB)   RECORD NAMES
              1      18       29.03       500      610      700      900      950      970     1000      129      960     1100   
                                          VAR    BASINP    GEOM    SYMINP    ZMAT    AOBASIS   BASIS     P2S    ABASIS      S 
                                         1400     1410     1200     1210     1080     1600     1650     1700   
                                           T        V       H0       H01     AOSYM     SMH    MOLCAS    OPER   

 PROGRAMS   *        TOTAL       INT
 CPU TIMES  *         0.48      0.35
 REAL TIME  *         0.57 SEC
 DISK USED  *        29.49 MB (local),      279.70 MB (total)
 GA USED    *         0.00 MB       (max)       0.00 MB       (current)
 **********************************************************************************************************************************


 Program * Restricted Hartree-Fock

 Orbital guess generated from atomic densities.

 Initial occupancy:  14

 NELEC=   28   SYM=1   MS2= 0   THRE=1.0D-08   THRD=1.0D-06   THRG=1.0D-06  HFMA2=F  DIIS_START=2   DIIS_MAX=10   DIIS_INCORE=F

 Level shifts:    0.00 (CLOSED)    0.00 (OPEN)    0.30 (GAP_MIN)

 ITER           ETOT              DE          GRAD        DDIFF     DIIS  NEXP   TIME(IT)  TIME(TOT)  DIAG
   1     -191.05961371    -191.05961371     0.00D+00     0.47D-01     0     0       0.01      0.03    start
   2     -191.11524122      -0.05562750     0.87D-02     0.63D-02     1     0       0.01      0.04    diag
   3     -191.12907069      -0.01382947     0.46D-02     0.21D-02     2     0       0.01      0.05    diag
   4     -191.12972792      -0.00065724     0.69D-03     0.56D-03     3     0       0.01      0.06    diag
   5     -191.12977202      -0.00004409     0.15D-03     0.18D-03     4     0       0.01      0.07    diag
   6     -191.12977418      -0.00000216     0.38D-04     0.38D-04     5     0       0.01      0.08    diag
   7     -191.12977449      -0.00000031     0.17D-04     0.12D-04     6     0       0.01      0.09    diag
   8     -191.12977451      -0.00000002     0.29D-05     0.36D-05     7     0       0.01      0.10    fixocc
   9     -191.12977451      -0.00000000     0.51D-06     0.66D-06     8     0       0.01      0.11    diag
  10     -191.12977451      -0.00000000     0.11D-06     0.13D-06     0     0       0.01      0.12    diag/orth

 Final occupancy:  14

 !RHF STATE 1.1 Energy               -191.129774510076
  RHF One-electron energy            -421.003030931636
  RHF Two-electron energy             149.889884894793
  RHF Kinetic energy                  191.075966388905
  RHF Nuclear energy                   79.983371526767
  RHF Virial quotient                  -1.000281605909

 !RHF STATE 1.1 Dipole moment          -0.00465341     0.39490110     0.99762761
 Dipole moment /Debye                  -0.01182778     1.00373849     2.53571645

 Orbital energies:

           1.1          2.1          3.1          4.1          5.1          6.1          7.1          8.1          9.1         10.1
    -20.570911   -20.511341   -11.280694    -1.375903    -1.308108    -0.939027    -0.711783    -0.677726    -0.629421    -0.606650

          11.1         12.1         13.1         14.1         15.1         16.1
     -0.546458    -0.516996    -0.469509    -0.467100     0.141723     0.179779


 HOMO     14.1    -0.467100 =     -12.7104eV
 LUMO     15.1     0.141723 =       3.8565eV
 LUMO-HOMO         0.608823 =      16.5669eV

 Orbitals saved in record  2100.2


 **********************************************************************************************************************************
 DATASETS  * FILE   NREC   LENGTH (MB)   RECORD NAMES
              1      18       29.03       500      610      700      900      950      970     1000      129      960     1100   
                                          VAR    BASINP    GEOM    SYMINP    ZMAT    AOBASIS   BASIS     P2S    ABASIS      S 
                                         1400     1410     1200     1210     1080     1600     1650     1700   
                                           T        V       H0       H01     AOSYM     SMH    MOLCAS    OPER   

              2       4        0.64       700     1000      520     2100   
                                         GEOM     BASIS   MCVARS     RHF  

 PROGRAMS   *        TOTAL    HF-SCF       INT
 CPU TIMES  *         0.61      0.13      0.35
 REAL TIME  *         0.72 SEC
 DISK USED  *        30.28 MB (local),      284.42 MB (total)
 GA USED    *         0.00 MB       (max)       0.00 MB       (current)
 **********************************************************************************************************************************


 PROGRAM * OPT (Geometry optimization)     Authors: F. Eckert and H.-J. Werner


 BFGS update of hessian

 *** Long output written to logfile /home/lme/Theoretische_Chemie/Paper/Calc_Paper/methanol_h2o/methanol_water.log ***


 Geometry optimization using default procedure for command HF-SCF

 Geometry written to block  1 of record 700

 PQS Optimization using delocalized internal coordinates

 Point group c1. Number of degrees of freedom:   21

 ITER.   ENERGY(OLD)    ENERGY(NEW)      DE          GRADMAX     GRADNORM    GRADRMS     STEPMAX     STEPLEN     STEPRMS   CPU-time
   1  -191.12977451  -191.13137522    -0.00160071  0.01760796  0.03761683  0.00820866  0.05667674  0.11193584  0.02442640      0.67
   2  -191.13137522  -191.13149815    -0.00012293  0.00200564  0.00415426  0.00090653  0.04194383  0.07952759  0.01735434      1.29
   3  -191.13149815  -191.13158729    -0.00008913  0.00100448  0.00243490  0.00053134  0.07333382  0.13027767  0.02842892      1.94
   4  -191.13158729  -191.13162898    -0.00004169  0.00086824  0.00180827  0.00039460  0.07573682  0.12793646  0.02791802      2.61
   5  -191.13162898  -191.13164013    -0.00001115  0.00082961  0.00133583  0.00029150  0.04715876  0.07152243  0.01560747      3.25
   6  -191.13164013  -191.13164549    -0.00000536  0.00034899  0.00069974  0.00015270  0.03016386  0.04388715  0.00957696      3.97
   7  -191.13164549  -191.13165338    -0.00000789  0.00029318  0.00064276  0.00014026  0.04535952  0.06600519  0.01440351      4.63
   8  -191.13165338  -191.13166154    -0.00000816  0.00064315  0.00092606  0.00020208  0.04343121  0.06609159  0.01442237      5.28
   9  -191.13166154  -191.13166801    -0.00000647  0.00067581  0.00093767  0.00020462  0.02232082  0.04208906  0.00918459      5.93
  10  -191.13166801  -191.13167452    -0.00000652  0.00041922  0.00068280  0.00014900  0.01475399  0.03121948  0.00681265      6.57
  11  -191.13167452  -191.13168544    -0.00001092  0.00024364  0.00062002  0.00013530  0.02109530  0.05399994  0.01178375      7.24
  12  -191.13168544  -191.13170437    -0.00001893  0.00058222  0.00114635  0.00025015  0.03906076  0.10348494  0.02258226      7.87
  13  -191.13170437  -191.13173002    -0.00002564  0.00122558  0.00183376  0.00040016  0.06143962  0.15275146  0.03333310      8.55
  14  -191.13173002  -191.13175148    -0.00002146  0.00154006  0.00199503  0.00043535  0.05189525  0.12150823  0.02651527      9.24
  15  -191.13175148  -191.13176585    -0.00001437  0.00112693  0.00134438  0.00029337  0.02315753  0.04710040  0.01027815      9.88
  16  -191.13176585  -191.13177769    -0.00001185  0.00042413  0.00081915  0.00017875  0.01648073  0.04038473  0.00881267     10.51
  17  -191.13177769  -191.13179125    -0.00001356  0.00078982  0.00110228  0.00024054  0.02165793  0.05823169  0.01270720     11.16
  18  -191.13179125  -191.13180103    -0.00000978  0.00085908  0.00134712  0.00029397  0.01988147  0.05391250  0.01176467     11.81
  19  -191.13180103  -191.13180577    -0.00000474  0.00069718  0.00095908  0.00020929  0.01276873  0.03148679  0.00687098     12.45
  20  -191.13180577  -191.13180903    -0.00000327  0.00025505  0.00036003  0.00007856  0.01627946  0.03082327  0.00672619     13.12
  21  -191.13180903  -191.13181297    -0.00000394  0.00021587  0.00037924  0.00008276  0.02485077  0.05005559  0.01092302     13.77
  22  -191.13181297  -191.13181837    -0.00000540  0.00050105  0.00078806  0.00017197  0.03849965  0.08284208  0.01807762     14.44
  23  -191.13181837  -191.13182350    -0.00000512  0.00062316  0.00104351  0.00022771  0.03745308  0.08795112  0.01919251     15.08
  24  -191.13182350  -191.13182635    -0.00000285  0.00039264  0.00080347  0.00017533  0.02185279  0.05218295  0.01138725     15.74
  25  -191.13182635  -191.13182709    -0.00000074  0.00014660  0.00024273  0.00005297  0.00760723  0.01285449  0.00280508     16.36

 END OF GEOMETRY OPTIMIZATION.

 Geometry written to block  1 of record 700

 Recomputing wavefunction for reoriented structure

 Current geometry (xyz format, in Angstrom)

    9
 HF-SCF000/6-311G(D,P)  ENERGY=-191.13182709
 O         -0.0552807293       -0.1410212171       -2.0374747244
 H          0.8116668040        0.0499635734       -2.3481291280
 H         -0.1177795761        0.2899607282       -1.1985041931
 O          0.0325006876        0.6525566322        0.7869980229
 H         -0.3501534588        1.3175845314        1.3298282238
 C          0.0015236382       -0.5881254065        1.4483072250
 H          0.3706652535       -1.3266676268        0.7510214630
 H          0.6381259809       -0.5844399295        2.3289395580
 H         -1.0091310028       -0.8621287576        1.7380651195

 **********************************************************************************************************************************


 **********************************************************************************************************************************
 DATASETS  * FILE   NREC   LENGTH (MB)   RECORD NAMES
              1      18       29.03       500      610      700      900      950      970     1000      129      960     1100   
                                          VAR    BASINP    GEOM    SYMINP    ZMAT    AOBASIS   BASIS     P2S    ABASIS      S 
                                         1400     1410     1200     1210     1080     1600     1650     1700   
                                           T        V       H0       H01     AOSYM     SMH    MOLCAS    OPER   

              2       4        0.64       700     1000      520     2100   
                                         GEOM     BASIS   MCVARS     RHF  

 PROGRAMS   *        TOTAL      OPTG    HF-SCF       INT
 CPU TIMES  *        17.36     16.75      0.13      0.35
 REAL TIME  *        19.37 SEC
 DISK USED  *        30.31 MB (local),      284.64 MB (total)
 SF USED    *         0.09 MB
 GA USED    *         0.00 MB       (max)       0.00 MB       (current)
 **********************************************************************************************************************************


 PROGRAM * HESSIAN

 PROGRAM * MCKINLEY (Hessian of the energy)     Author: A. Bernhardsson, R. Lindh

 Orbitals from record         2100.2

 Number of closed-shell orbitals: 14 ( 14 )
 Number of occupied orbitals:     14 ( 14 )

 Number of electrons= 28     Singlet     Space symmetry=1      Wavefunction type: CLOSED          


 McKinley needed      2.86 seconds of CPU time

 Entering CPHF calculation

 CPHF needed 226 iterations for 27 perturbations.  Total CPU time:    2.49 sec


 HF-SCF hessian saved to record  5300.2

 PROGRAM * FREQUENCIES (Calculation of harmonic vibrational spectra for HF-SCF)


 Permanent Dipole Moment [debye]
     1-   3    0.000000    0.000000    0.000000

 Dipole Moment Norm    0.0000000 [debye]

 Dipole Moment Derivatives [debye/ang]
              1             2             3             4             5             6             7             8
    1    0.00000000    0.00000000    0.00000000    0.00000000    0.00000000    0.00000000    0.00000000    0.00000000
    2    0.00000000    0.00000000    0.00000000    0.00000000    0.00000000    0.00000000    0.00000000    0.00000000
    3    0.00000000    0.00000000    0.00000000    0.00000000    0.00000000    0.00000000    0.00000000    0.00000000
              9            10            11            12            13            14            15            16
    1    0.00000000    0.00000000    0.00000000    0.00000000    0.00000000    0.00000000    0.00000000    0.00000000
    2    0.00000000    0.00000000    0.00000000    0.00000000    0.00000000    0.00000000    0.00000000    0.00000000
    3    0.00000000    0.00000000    0.00000000    0.00000000    0.00000000    0.00000000    0.00000000    0.00000000
             17            18            19            20            21            22            23            24
    1    0.00000000    0.00000000    0.00000000    0.00000000    0.00000000    0.00000000    0.00000000    0.00000000
    2    0.00000000    0.00000000    0.00000000    0.00000000    0.00000000    0.00000000    0.00000000    0.00000000
    3    0.00000000    0.00000000    0.00000000    0.00000000    0.00000000    0.00000000    0.00000000    0.00000000
             25            26            27
    1    0.00000000    0.00000000    0.00000000
    2    0.00000000    0.00000000    0.00000000
    3    0.00000000    0.00000000    0.00000000

 Projecting out rotations and translations

 Force Constants (Second Derivatives of the Energy) in [a.u.]
                             OX1         OY1         OZ1         HX2         HY2     
           OX1           0.5784879
           OY1           0.1268566   0.1797414
           OZ1          -0.2050986   0.2238497   0.5749906
           HX2          -0.5276341  -0.1098432   0.1999977   0.5329766
           HY2          -0.1383900  -0.0430493   0.0291753   0.1142066   0.0379567
           HZ2           0.1484385   0.0075612  -0.0998783  -0.1965202  -0.0194744
           HX3          -0.0533180  -0.0171813   0.0047933  -0.0052369   0.0246783
           HY3           0.0116891  -0.1387842  -0.2495369  -0.0042668   0.0055602
           HZ3           0.0562057  -0.2285620  -0.4682123  -0.0030302  -0.0095755
           OX4           0.0034276   0.0000233   0.0006752  -0.0002365  -0.0003250
           OY4          -0.0004572   0.0035886  -0.0026336   0.0001403  -0.0009003
           OZ4           0.0014102  -0.0025812  -0.0063719  -0.0005809  -0.0000786
           HX5          -0.0002944   0.0000248  -0.0005093   0.0000206   0.0000503
           HY5           0.0001615  -0.0000090   0.0015035   0.0000099   0.0001310
           HZ5          -0.0007046   0.0004355  -0.0013844   0.0000028  -0.0001255
           CX6          -0.0007030   0.0007269  -0.0005519  -0.0000087  -0.0001243
           CY6           0.0009133  -0.0037535  -0.0017891  -0.0003319   0.0006942
           CZ6          -0.0000001  -0.0004908   0.0019853   0.0001354   0.0000919
           HX7          -0.0004234  -0.0004990   0.0003762   0.0001192  -0.0001606
           HY7          -0.0005595   0.0009954  -0.0008599  -0.0000172  -0.0001816
           HZ7           0.0001226  -0.0001850   0.0000530   0.0000880   0.0000751
           HX8           0.0001471  -0.0000786  -0.0000364   0.0000072   0.0000153
           HY8          -0.0000932   0.0008046   0.0000896   0.0000467  -0.0000838
           HZ8           0.0000826   0.0000858  -0.0008498  -0.0000951  -0.0000105
           HX9           0.0003103  -0.0000296   0.0003538  -0.0000073   0.0000494
           HY9          -0.0001206   0.0004660   0.0002014   0.0000556  -0.0001272
           HZ9          -0.0004564  -0.0001131  -0.0003322   0.0000024  -0.0000777
                             HZ2         HX3         HY3         HZ3         OX4     
           HZ2           0.1143018
           HX3           0.0489024   0.0618938
           HY3           0.0120073  -0.0081766   0.1385588
           HZ3          -0.0140150  -0.0534404   0.2359101   0.4850779
           OX4          -0.0009998  -0.0045122   0.0008375   0.0003592   0.1702925
           OY4          -0.0002128   0.0008955  -0.0062077   0.0000791  -0.1728213
           OZ4          -0.0003785  -0.0020201  -0.0001738  -0.0023823  -0.1764684
           HX5          -0.0000409   0.0004667  -0.0004049   0.0005931  -0.1102658
           HY5          -0.0002266  -0.0003454   0.0000303  -0.0022528   0.1583032
           HZ5           0.0001410   0.0016421  -0.0014938   0.0018075   0.1625440
           CX6           0.0002216   0.0010153  -0.0003864  -0.0003483  -0.0806677
           CY6           0.0000897  -0.0004886   0.0038314   0.0062120   0.0117063
           CZ6          -0.0003389  -0.0002297   0.0026048  -0.0039946   0.0130064
           HX7           0.0001357   0.0002283   0.0007099  -0.0001328   0.0030291
           HY7           0.0002460   0.0005452  -0.0012935  -0.0001457   0.0154577
           HZ7          -0.0000987  -0.0001360   0.0004250   0.0000414  -0.0093721
           HX8           0.0000099  -0.0001951   0.0000197   0.0001761   0.0082721
           HY8           0.0000105   0.0000985  -0.0011034  -0.0008830   0.0217315
           HZ8           0.0001064  -0.0000749  -0.0000421   0.0011396  -0.0079234
           HX9          -0.0001471  -0.0003419  -0.0000215  -0.0003824   0.0106609
           HY9          -0.0000008  -0.0000255  -0.0005920  -0.0007822  -0.0349132
           HZ9           0.0001603   0.0005635   0.0002993   0.0005377   0.0181790
                             OY4         OZ4         HX5         HY5         HZ5     
           OY4           0.6431028
           OZ4           0.1055436   0.4182026
           HX5           0.1821297   0.1530463   0.1080236
           HY5          -0.3205704  -0.2024053  -0.1747708   0.3505878
           HZ5          -0.2529512  -0.2523167  -0.1513731   0.2267248   0.2372285
           CX6          -0.0097573   0.0221515   0.0014983   0.0180429  -0.0111242
           CY6          -0.2450352   0.0571415  -0.0045328  -0.0285175   0.0216155
           CZ6           0.1009671  -0.1524672  -0.0011164  -0.0271215   0.0153256
           HX7          -0.0001767  -0.0019070   0.0007492  -0.0008888  -0.0003514
           HY7          -0.0377050  -0.0207451  -0.0014725  -0.0054715   0.0046964
           HZ7           0.0206990   0.0175847  -0.0003430   0.0053108  -0.0011487
           HX8           0.0041392   0.0033617  -0.0007004   0.0004492  -0.0009321
           HY8          -0.0125046   0.0421477   0.0005895   0.0018450   0.0008438
           HZ8           0.0139386  -0.0150778   0.0004900  -0.0002646   0.0000568
           HX9          -0.0040922   0.0010068   0.0005022  -0.0009617   0.0002965
           HY9          -0.0237682   0.0211511  -0.0016133   0.0019744   0.0002545
           HZ9           0.0145703  -0.0067927  -0.0007467  -0.0012683   0.0002905
                             CX6         CY6         CZ6         HX7         HY7     
           CX6           0.6438125
           CY6          -0.0130710   0.5871712
           CZ6          -0.0133142   0.0549251   0.6463983
           HX7          -0.0972314   0.0676943   0.0666328   0.0935925
           HY7           0.0623690  -0.1795774  -0.1210674  -0.0738091   0.2125770
           HZ7           0.0702246  -0.1378190  -0.1938731  -0.0733632   0.1342138
           HX8          -0.1613875  -0.0076764  -0.1292544   0.0101894  -0.0006554
           HY8          -0.0098355  -0.0620624  -0.0189095  -0.0161910   0.0019425
           HZ8          -0.1267987  -0.0125131  -0.2336358  -0.0153696  -0.0017842
           HX9          -0.3063278  -0.0542131   0.0641401  -0.0102529  -0.0018583
           HY9          -0.0479643  -0.0727507   0.0090005   0.0233209   0.0087142
           HZ9           0.0595395   0.0121374  -0.0793997   0.0239792   0.0054461
                             HZ7         HX8         HY8         HZ8         HX9     
           HZ7           0.1984959
           HX8           0.0107716   0.1626306
           HY8          -0.0181625   0.0067882   0.0687343
           HZ8          -0.0172122   0.1444512   0.0013360   0.2549935
           HX9           0.0020075  -0.0189634  -0.0031347   0.0052379   0.3244200
           HY9          -0.0045573  -0.0030013   0.0024279  -0.0007458   0.0642618
           HZ9          -0.0038422  -0.0285476  -0.0064725   0.0104794  -0.0725130
                             HY9         HZ9     
           HY9           0.0836557
           HZ9          -0.0245213   0.0788990


 Atomic Masses
     1-   9   15.994910    1.007825    1.007825   15.994910    1.007825   12.000000    1.007825    1.007825    1.007825

 Mass weighted Second Derivative Matrix
                             OX1         OY1         OZ1         HX2         HY2     
           OX1           0.0361670
           OY1           0.0079311   0.0112374
           OZ1          -0.0128227   0.0139951   0.0359484
           HX2          -0.1314163  -0.0273583   0.0498129   0.5288385
           HY2          -0.0344684  -0.0107222   0.0072666   0.1133198   0.0376620
           HZ2           0.0369712   0.0018832  -0.0248764  -0.1949944  -0.0193232
           HX3          -0.0132798  -0.0042793   0.0011938  -0.0051963   0.0244867
           HY3           0.0029114  -0.0345666  -0.0621514  -0.0042337   0.0055170
           HZ3           0.0139990  -0.0569273  -0.1166163  -0.0030067  -0.0095012
           OX4           0.0002143   0.0000015   0.0000422  -0.0000589  -0.0000810
           OY4          -0.0000286   0.0002244  -0.0001647   0.0000350  -0.0002242
           OZ4           0.0000882  -0.0001614  -0.0003984  -0.0001447  -0.0000196
           HX5          -0.0000733   0.0000062  -0.0001269   0.0000204   0.0000499
           HY5           0.0000402  -0.0000022   0.0003745   0.0000098   0.0001300
           HZ5          -0.0001755   0.0001085  -0.0003448   0.0000028  -0.0001245
           CX6          -0.0000507   0.0000525  -0.0000398  -0.0000025  -0.0000357
           CY6           0.0000659  -0.0002709  -0.0001291  -0.0000954   0.0001996
           CZ6          -0.0000000  -0.0000354   0.0001433   0.0000389   0.0000264
           HX7          -0.0001054  -0.0001243   0.0000937   0.0001183  -0.0001594
           HY7          -0.0001394   0.0002479  -0.0002142  -0.0000170  -0.0001802
           HZ7           0.0000305  -0.0000461   0.0000132   0.0000873   0.0000745
           HX8           0.0000366  -0.0000196  -0.0000091   0.0000071   0.0000152
           HY8          -0.0000232   0.0002004   0.0000223   0.0000463  -0.0000831
           HZ8           0.0000206   0.0000214  -0.0002117  -0.0000943  -0.0000104
           HX9           0.0000773  -0.0000074   0.0000881  -0.0000073   0.0000490
           HY9          -0.0000300   0.0001161   0.0000502   0.0000552  -0.0001262
           HZ9          -0.0001137  -0.0000282  -0.0000827   0.0000024  -0.0000771
                             HZ2         HX3         HY3         HZ3         OX4     
           HZ2           0.1134143
           HX3           0.0485227   0.0614133
           HY3           0.0119141  -0.0081132   0.1374830
           HZ3          -0.0139061  -0.0530255   0.2340784   0.4813116
           OX4          -0.0002490  -0.0011238   0.0002086   0.0000895   0.0106467
           OY4          -0.0000530   0.0002230  -0.0015461   0.0000197  -0.0108048
           OZ4          -0.0000943  -0.0005031  -0.0000433  -0.0005933  -0.0110328
           HX5          -0.0000406   0.0004631  -0.0004018   0.0005885  -0.0274636
           HY5          -0.0002249  -0.0003428   0.0000301  -0.0022353   0.0394281
           HZ5           0.0001399   0.0016294  -0.0014822   0.0017934   0.0404844
           CX6           0.0000637   0.0002919  -0.0001111  -0.0001001  -0.0058226
           CY6           0.0000258  -0.0001405   0.0011017   0.0017863   0.0008450
           CZ6          -0.0000974  -0.0000661   0.0007490  -0.0011486   0.0009388
           HX7           0.0001346   0.0002265   0.0007044  -0.0001317   0.0007544
           HY7           0.0002440   0.0005410  -0.0012835  -0.0001445   0.0038500
           HZ7          -0.0000980  -0.0001349   0.0004217   0.0000411  -0.0023343
           HX8           0.0000098  -0.0001936   0.0000196   0.0001747   0.0020603
           HY8           0.0000104   0.0000977  -0.0010949  -0.0008761   0.0054126
           HZ8           0.0001056  -0.0000744  -0.0000417   0.0011307  -0.0019735
           HX9          -0.0001459  -0.0003393  -0.0000214  -0.0003794   0.0026553
           HY9          -0.0000008  -0.0000253  -0.0005874  -0.0007762  -0.0086957
           HZ9           0.0001591   0.0005591   0.0002970   0.0005335   0.0045278
                             OY4         OZ4         HX5         HY5         HZ5     
           OY4           0.0402067
           OZ4           0.0065986   0.0261460
           HX5           0.0453625   0.0381188   0.1071849
           HY5          -0.0798436  -0.0504125  -0.1734138   0.3478657
           HZ5          -0.0630018  -0.0628438  -0.1501978   0.2249645   0.2353866
           CX6          -0.0007043   0.0015989   0.0004308   0.0051883  -0.0031988
           CY6          -0.0176867   0.0041245  -0.0013034  -0.0082003   0.0062156
           CZ6           0.0072878  -0.0110051  -0.0003210  -0.0077989   0.0044069
           HX7          -0.0000440  -0.0004750   0.0007434  -0.0008819  -0.0003487
           HY7          -0.0093911  -0.0051669  -0.0014610  -0.0054290   0.0046599
           HZ7           0.0051554   0.0043798  -0.0003403   0.0052696  -0.0011398
           HX8           0.0010309   0.0008373  -0.0006950   0.0004458  -0.0009249
           HY8          -0.0031145   0.0104976   0.0005849   0.0018307   0.0008372
           HZ8           0.0034716  -0.0037554   0.0004861  -0.0002625   0.0000563
           HX9          -0.0010192   0.0002508   0.0004983  -0.0009543   0.0002942
           HY9          -0.0059199   0.0052680  -0.0016008   0.0019590   0.0002525
           HZ9           0.0036290  -0.0016918  -0.0007409  -0.0012585   0.0002882
                             CX6         CY6         CZ6         HX7         HY7     
           CX6           0.0536510
           CY6          -0.0010893   0.0489309
           CZ6          -0.0011095   0.0045771   0.0538665
           HX7          -0.0279591   0.0194656   0.0191604   0.0928658
           HY7           0.0179344  -0.0516379  -0.0348132  -0.0732360   0.2109265
           HZ7           0.0201932  -0.0396302  -0.0557487  -0.0727936   0.1331718
           HX8          -0.0464073  -0.0022074  -0.0371674   0.0101103  -0.0006503
           HY8          -0.0028282  -0.0178462  -0.0054375  -0.0160652   0.0019274
           HZ8          -0.0364613  -0.0035982  -0.0671825  -0.0152503  -0.0017704
           HX9          -0.0880853  -0.0155891   0.0184436  -0.0101733  -0.0018438
           HY9          -0.0137922  -0.0209196   0.0025881   0.0231398   0.0086465
           HZ9           0.0171207   0.0034901  -0.0228316   0.0237930   0.0054038
                             HZ7         HX8         HY8         HZ8         HX9     
           HZ7           0.1969548
           HX8           0.0106880   0.1613679
           HY8          -0.0180215   0.0067355   0.0682006
           HZ8          -0.0170786   0.1433297   0.0013256   0.2530136
           HX9           0.0019919  -0.0188162  -0.0031104   0.0051972   0.3219012
           HY9          -0.0045219  -0.0029780   0.0024090  -0.0007400   0.0637628
           HZ9          -0.0038123  -0.0283259  -0.0064223   0.0103980  -0.0719500
                             HY9         HZ9     
           HY9           0.0830062
           HZ9          -0.0243309   0.0782864


 Mass Weighted 2nd Derivative Matrix Eigenvalues
     1-  10    0.000000    0.000000    0.000000    0.000000    0.000000    0.000000    0.000107    0.000167    0.000872    0.001161
    11-  20    0.002679    0.004742    0.013395    0.050635    0.051527    0.061895    0.083373    0.098434    0.099528    0.100550
    21-  27    0.119623    0.377519    0.390458    0.406647    0.635246    0.663826    0.671498

 Mass Weighted 2nd Derivative Matrix Eigenvectors
              1             2             3             4             5             6             7             8
    1    0.00000000    0.00000000    0.00000000    0.93922387    0.00000000    0.00000000   -0.13914584    0.01647671
    2    0.88696016    0.07385452    0.09864190   -0.00720494   -0.07318665   -0.07539020    0.04359424    0.23665204
    3   -0.13392483    0.25201278    0.21849324   -0.01575000   -0.37784128   -0.22409218   -0.06176584   -0.45352265
    4    0.00517445   -0.01639982   -0.01993459    0.25172916   -0.03670535    0.02232081   -0.08937241    0.03283044
    5    0.22330440    0.04521309    0.07679263    0.02655438    0.11501183   -0.15968056    0.05186821    0.05772987
    6   -0.01876923    0.03389102    0.03120189    0.05804788   -0.11527699   -0.08049429   -0.14185989   -0.03466046
    7    0.00825665    0.02620709   -0.01526748    0.16165985   -0.04616314    0.08587242    0.08502170   -0.00967909
    8    0.16734129   -0.00997424    0.05057084   -0.00385326   -0.02888105    0.00942544   -0.04736026   -0.08233665
    9   -0.00459441    0.07985875    0.04044923   -0.00842323   -0.09288414   -0.06441700    0.02377444   -0.04200062
   10    0.04924469    0.40150496   -0.01361994    0.03107483   -0.21724871    0.74744085    0.27348257   -0.06120153
   11    0.11738993   -0.28586730    0.53151016    0.00423594   -0.03184469    0.12144862   -0.04791918   -0.34487561
   12    0.08076696    0.34060368    0.09729572    0.00925975   -0.38270508   -0.30262661    0.01423882   -0.16124339
   13    0.02677121    0.11036482   -0.04148383   -0.05277821   -0.14366406    0.30279495   -0.26655477    0.06257693
   14    0.00172217   -0.09674203    0.12513911   -0.01145557   -0.06731055    0.10165656   -0.05857450    0.01719001
   15    0.06442201    0.12285970    0.00773197   -0.02504188   -0.08622584   -0.08196681   -0.17494220   -0.11251508
   16   -0.06293949    0.52320898    0.34471495    0.00378017    0.52314627    0.03912991   -0.05204614    0.01787108
   17   -0.05021446   -0.32395530    0.53518174    0.00017200   -0.04648548    0.17256187    0.01369394    0.08411311
   18   -0.21995581    0.16000068    0.24131949    0.00037600   -0.33362895   -0.16422865    0.10416868    0.57180444
   19   -0.03403318    0.13711050    0.14034945    0.07512526    0.24834417   -0.11874453    0.42718795   -0.07564582
   20    0.02396060   -0.06412689    0.15679768    0.01212664    0.04394094   -0.02251920    0.04154890   -0.10228833
   21   -0.11289615    0.00716675    0.08954786    0.02650882   -0.10628457   -0.03964098    0.22423787    0.25588280
   22   -0.02010926    0.18770581    0.11662382   -0.06200515    0.17201119    0.03221063   -0.41335610    0.08353581
   23   -0.08908692   -0.11039976    0.23344231    0.02087685    0.08325750   -0.02863384    0.14447378    0.14876676
   24   -0.06208052    0.02035676    0.05751699    0.04563678   -0.11183984   -0.06235199    0.31720585    0.10862327
   25   -0.02531742    0.16875490    0.12549004   -0.01066282    0.20055695   -0.02427827   -0.09850620    0.02289032
   26   -0.01042702   -0.12262178    0.09181943   -0.03301460   -0.16888502    0.21248365   -0.16197908    0.10183722
   27   -0.08452826    0.07893254    0.09935692   -0.07216990   -0.07292302   -0.01818677   -0.41852489    0.30069554
              9            10            11            12            13            14            15            16
    1    0.10634176    0.00865976   -0.01289742    0.01156908    0.05088254    0.00022391   -0.00121799   -0.00042713
    2   -0.20003162    0.18855485    0.09549141    0.00493630   -0.10134042   -0.00362876    0.00511980   -0.00091503
    3    0.05445181    0.61518738    0.11333339    0.05548071    0.07559260   -0.00181870   -0.00320036   -0.00128685
    4   -0.32135465   -0.01887804   -0.11686639   -0.04475524   -0.02607977    0.00013862    0.00112738    0.00064750
    5    0.75784470    0.10863814   -0.38543059   -0.09280762    0.03151402    0.00181198   -0.00552536    0.00015503
    6   -0.45987453    0.13439407   -0.53537546   -0.17443365   -0.05425453    0.00134433   -0.00051029    0.00190999
    7    0.05657284    0.00915353    0.62348065    0.13034431   -0.29816738   -0.00851598    0.01427146    0.00111335
    8   -0.06839249   -0.00122435    0.16406879    0.17335240    0.80585788    0.02545841   -0.02815507   -0.00059070
    9    0.02557009    0.17921387    0.00475947   -0.06546496   -0.43283537   -0.01135494    0.01643402    0.00050433
   10    0.06124314   -0.00257387   -0.09191296   -0.26012273    0.07441382    0.01255300    0.00112855    0.19601645
   11    0.01531710   -0.26075170   -0.01720279   -0.07212260   -0.07300816    0.32619073    0.51515344    0.03223319
   12    0.03292628   -0.61175393    0.01452299   -0.10239504   -0.03373814   -0.17550741   -0.25729737    0.08853305
   13    0.06663055    0.00271421   -0.23034161    0.73819815   -0.13398321    0.07270433   -0.06984203    0.00613899
   14    0.02056150    0.00001650   -0.04849627    0.15759093   -0.06761416    0.38701713   -0.20349313   -0.00249599
   15    0.02364014   -0.23135027   -0.08916266    0.32506940   -0.05474069   -0.36487872    0.30569188    0.00536996
   16   -0.09996640   -0.00409068    0.02863863    0.02111189   -0.00183838   -0.08006880    0.05950687   -0.37793804
   17    0.00506916    0.02703876   -0.00994444    0.00384429   -0.02622975   -0.36781652   -0.48889569   -0.06747457
   18    0.01547776   -0.04801283    0.02556498    0.01823275    0.07679550    0.35837916    0.08172145   -0.16446202
   19   -0.11587446   -0.00737061   -0.09280889    0.23155368   -0.01897702    0.04917225   -0.03688821    0.22692330
   20   -0.01711825   -0.07040276   -0.01687499    0.04136948   -0.03405448    0.21324669   -0.39264991    0.00716122
   21   -0.02154965    0.06625209   -0.03156970    0.08367215    0.04503019   -0.19523267    0.26617237    0.10258164
   22    0.02214560    0.00494432    0.10333579   -0.13452124   -0.00818363    0.08515274   -0.07898881    0.17289883
   23   -0.04380689    0.10998196   -0.01770271    0.10787767    0.02188006   -0.29264091    0.10857169    0.53369610
   24   -0.03227009   -0.01951291   -0.06086041    0.10803329    0.02961882    0.01734224    0.08421044   -0.25896099
   25   -0.03079903   -0.00069300    0.03192359   -0.00347904   -0.00742199    0.02673490   -0.03465949    0.11721117
   26    0.06928672    0.04730816    0.02686352   -0.13299079    0.02749695   -0.35072035    0.13558022   -0.42986163
   27    0.06297855    0.02299933    0.11463833   -0.15289303    0.03544883    0.02257991    0.08378408    0.36852017
             17            18            19            20            21            22            23            24
    1   -0.00146503   -0.00168035    0.00283378    0.00334657   -0.19067656    0.00038279    0.00033620   -0.00021803
    2   -0.00631285    0.00082838    0.00200348    0.00543277   -0.14361954   -0.00070648    0.00024940    0.00032530
    3   -0.00437705   -0.00592677    0.00267966    0.00407107   -0.11539841   -0.00147484    0.00015096   -0.00090502
    4    0.00112694    0.00177656   -0.00159502   -0.00225122    0.11297618   -0.00023167   -0.00009574    0.00045832
    5    0.00739162   -0.00196282   -0.00871037   -0.01001050    0.34413712   -0.00023176   -0.00010274   -0.00009482
    6    0.00738170    0.00235049   -0.00910466   -0.01253419    0.53444468   -0.00060283   -0.00050736    0.00007739
    7   -0.00146357    0.00471675   -0.01107014   -0.01045257    0.67026128   -0.00127100   -0.00162145    0.00053664
    8    0.02212296   -0.00859272    0.00063352   -0.01303285    0.23770918    0.00300853   -0.00132792   -0.00191864
    9   -0.00905582    0.00783606   -0.00056243    0.00432490   -0.07766576    0.00407296   -0.00002159    0.00223037
   10   -0.12400464    0.01330092   -0.03205935    0.02461982   -0.00705107    0.00002657    0.00238694   -0.00231500
   11   -0.00370218   -0.04236830   -0.00921823   -0.00152333   -0.00282619   -0.00638567    0.00048557    0.00254297
   12    0.29668668    0.00065718   -0.00539634   -0.07048332   -0.00653459    0.00242363    0.00031854    0.00479402
   13    0.09739430   -0.00394436   -0.00979700   -0.01181720    0.00122419    0.00136005   -0.00018102    0.00472133
   14    0.49914140   -0.04244680   -0.00072503   -0.07115241   -0.00932658   -0.00563450    0.00014958   -0.00210090
   15   -0.46019797    0.03152870   -0.00554863    0.05851231    0.01057219    0.00143436    0.00105982   -0.01156062
   16    0.16106008    0.03947355   -0.18508838    0.03841111   -0.00287464   -0.02784838   -0.29138101    0.11051872
   17   -0.18395207   -0.32527705   -0.08183946    0.03956686    0.00300842   -0.09007644   -0.05229613   -0.16646539
   18   -0.29422737    0.12626364   -0.03574831   -0.18299048   -0.00070927    0.14352181   -0.10119396   -0.22794627
   19   -0.01161616    0.00097051    0.66402263    0.08969724    0.01339126   -0.10375279   -0.02388181   -0.31421793
   20   -0.32283945    0.41281970    0.15363897    0.16946525    0.00914075    0.20294788    0.00431205    0.61605563
   21    0.16181587   -0.48646181    0.18472393   -0.15438427   -0.00026319    0.19845204    0.00014054    0.59605164
   22   -0.15705223   -0.05321354    0.22874128   -0.51096967   -0.00510480   -0.40829089    0.37837207    0.12208347
   23    0.20484621    0.52973923   -0.31627778   -0.20538617   -0.01258177   -0.01470346    0.01725528    0.00186419
   24    0.05805199    0.06201288   -0.18855479    0.35261090    0.00517347   -0.54332853    0.53462412    0.14569594
   25    0.01569942   -0.13280854   -0.11520170    0.20183826    0.00488000    0.60664984    0.64200673   -0.18484966
   26    0.26398528    0.39834030    0.48258034   -0.02198828    0.00395197    0.15368731    0.15724022   -0.05082203
   27    0.09276795   -0.03196204    0.15322339    0.64747589    0.01594360   -0.15904809   -0.18798329    0.03856993
             25            26            27
    1   -0.06927270    0.01198510   -0.20646205
    2   -0.11569477    0.00282558    0.00268550
    3   -0.15903218   -0.00380129    0.16220706
    4    0.36521090   -0.04957137    0.81021507
    5    0.06581656   -0.01012048    0.17121035
    6   -0.15716025    0.01906104   -0.30416818
    7   -0.09048849    0.00229946    0.01276340
    8    0.39567264   -0.00139852   -0.18185337
    9    0.79285960   -0.00388569   -0.34220638
   10    0.00310825    0.09770909    0.00458582
   11   -0.00584536   -0.17621147   -0.00816834
   12   -0.00446970   -0.13603924   -0.00654527
   13   -0.01034923   -0.39302698   -0.01927178
   14    0.01592103    0.68939309    0.03507176
   15    0.01657913    0.55487937    0.02634330
   16   -0.00031246    0.00236453    0.00019550
   17    0.00371742    0.00019453   -0.00161178
   18   -0.00141217   -0.00514299    0.00047018
   19    0.00069985   -0.00369073   -0.00035513
   20   -0.00204949    0.00778406    0.00095998
   21   -0.00027466    0.00642224    0.00062129
   22    0.00135254   -0.00008286   -0.00062512
   23   -0.00209698    0.00190954    0.00100394
   24    0.00296638   -0.00112406   -0.00165053
   25   -0.00176093   -0.00108714    0.00083495
   26   -0.00189876    0.00249706    0.00101154
   27    0.00126265   -0.00050863   -0.00068850

   Low Vibration      Wavenumber
        Nr             [1/cm] 
        1                0.00
        2                0.00
        3                0.00
        4                0.00
        5                0.00
        6                0.00

     Vibration        Wavenumber
        Nr             [1/cm] 
        1               53.16
        2               66.44
        3              151.76
        4              175.16
        5              266.07
        6              353.98
        7              594.94
        8             1156.73
        9             1166.87
       10             1278.89
       11             1484.28
       12             1612.79
       13             1621.72
       14             1630.03
       15             1777.92
       16             3158.45
       17             3212.12
       18             3278.03
       19             4097.09
       20             4188.24
       21             4212.37

 FREQUENCIES * CALCULATION OF NORMAL MODES FOR HF-SCF


 Atomic Coordinates

  Nr  Atom  Charge       X              Y              Z

   1   O     8.00   -0.104465438   -0.266491478   -3.850269215
   2   H     1.00    1.533827964    0.094417470   -4.437320957
   3   H     1.00   -0.222571142    0.547946363   -2.264844684
   4   O     8.00    0.061417398    1.233153316    1.487210724
   5   H     1.00   -0.661694139    2.489873910    2.513011136
   6   C     6.00    0.002879259   -1.111395945    2.736904000
   7   H     1.00    0.700455813   -2.507038473    1.419224879
   8   H     1.00    1.205883337   -1.104431403    4.401057925
   9   H     1.00   -1.906981219   -1.629187236    3.284467063

 Gradient norm at reference geometry: 0.44615D-03

 Normal Modes

                              1 A         2 A         3 A         4 A         5 A  
 Wavenumbers [cm-1]           53.16       66.44      151.76      175.16      266.07
 Intensities [km/mol]          0.00        0.00        0.00        0.00        0.00
 Intensities [relative]        0.00        0.00        0.00        0.00        0.00
           OX1             -0.03479     0.00412     0.02659     0.00217    -0.00322
           OY1              0.01090     0.05917    -0.05002     0.04715     0.02388
           OZ1             -0.01544    -0.11340     0.01362     0.15382     0.02834
           HX2             -0.08902     0.03270    -0.32010    -0.01880    -0.11641
           HY2              0.05167     0.05751     0.75490     0.10822    -0.38393
           HZ2             -0.14131    -0.03453    -0.45809     0.13387    -0.53329
           HX3              0.08469    -0.00964     0.05635     0.00912     0.62106
           HY3             -0.04718    -0.08202    -0.06813    -0.00122     0.16343
           HZ3              0.02368    -0.04184     0.02547     0.17852     0.00474
           OX4              0.06838    -0.01530     0.01531    -0.00064    -0.02298
           OY4             -0.01198    -0.08623     0.00383    -0.06520    -0.00430
           OZ4              0.00356    -0.04032     0.00823    -0.15296     0.00363
           HX5             -0.26552     0.06233     0.06637     0.00270    -0.22945
           HY5             -0.05835     0.01712     0.02048     0.00002    -0.04831
           HZ5             -0.17426    -0.11208     0.02355    -0.23045    -0.08882
           CX6             -0.01502     0.00516    -0.02886    -0.00118     0.00827
           CY6              0.00395     0.02428     0.00146     0.00781    -0.00287
           CZ6              0.03007     0.16507     0.00447    -0.01386     0.00738
           HX7              0.42553    -0.07535    -0.11542    -0.00734    -0.09245
           HY7              0.04139    -0.10189    -0.01705    -0.07013    -0.01681
           HZ7              0.22337     0.25489    -0.02147     0.06599    -0.03145
           HX8             -0.41175     0.08321     0.02206     0.00493     0.10293
           HY8              0.14391     0.14819    -0.04364     0.10955    -0.01763
           HZ8              0.31597     0.10820    -0.03214    -0.01944    -0.06062
           HX9             -0.09812     0.02280    -0.03068    -0.00069     0.03180
           HY9             -0.16135     0.10144     0.06902     0.04712     0.02676
           HZ9             -0.41690     0.29953     0.06273     0.02291     0.11419

                              6 A         7 A         8 A         9 A        10 A  
 Wavenumbers [cm-1]          353.98      594.94     1156.73     1166.87     1278.89
 Intensities [km/mol]          0.00        0.00        0.00        0.00        0.00
 Intensities [relative]        0.00        0.00        0.00        0.00        0.00
           OX1              0.00289     0.01272     0.00006    -0.00030    -0.00011
           OY1              0.00123    -0.02534    -0.00091     0.00128    -0.00023
           OZ1              0.01387     0.01890    -0.00045    -0.00080    -0.00032
           HX2             -0.04458    -0.02598     0.00014     0.00112     0.00064
           HY2             -0.09245     0.03139     0.00180    -0.00550     0.00015
           HZ2             -0.17376    -0.05404     0.00134    -0.00051     0.00190
           HX3              0.12984    -0.29701    -0.00848     0.01422     0.00111
           HY3              0.17268     0.80272     0.02536    -0.02805    -0.00059
           HZ3             -0.06521    -0.43115    -0.01131     0.01637     0.00050
           OX4             -0.06504     0.01861     0.00314     0.00028     0.04901
           OY4             -0.01803    -0.01825     0.08156     0.12881     0.00806
           OZ4             -0.02560    -0.00844    -0.04388    -0.06433     0.02214
           HX5              0.73533    -0.13346     0.07242    -0.06957     0.00612
           HY5              0.15698    -0.06735     0.38551    -0.20270    -0.00249
           HZ5              0.32380    -0.05453    -0.36346     0.30450     0.00535
           CX6              0.00609    -0.00053    -0.02311     0.01718    -0.10910
           CY6              0.00111    -0.00757    -0.10618    -0.14113    -0.01948
           CZ6              0.00526     0.02217     0.10346     0.02359    -0.04748
           HX7              0.23065    -0.01890     0.04898    -0.03674     0.22604
           HY7              0.04121    -0.03392     0.21242    -0.39112     0.00713
           HZ7              0.08335     0.04486    -0.19447     0.26514     0.10218
           HX8             -0.13400    -0.00815     0.08482    -0.07868     0.17223
           HY8              0.10746     0.02179    -0.29150     0.10815     0.53162
           HZ8              0.10761     0.02950     0.01727     0.08388    -0.25795
           HX9             -0.00347    -0.00739     0.02663    -0.03452     0.11676
           HY9             -0.13247     0.02739    -0.34936     0.13505    -0.42819
           HZ9             -0.15230     0.03531     0.02249     0.08346     0.36709

                             11 A        12 A        13 A        14 A        15 A  
 Wavenumbers [cm-1]         1484.28     1612.79     1621.72     1630.03     1777.92
 Intensities [km/mol]          0.00        0.00        0.00        0.00        0.00
 Intensities [relative]        0.00        0.00        0.00        0.00        0.00
           OX1             -0.00037    -0.00042     0.00071     0.00084    -0.04768
           OY1             -0.00158     0.00021     0.00050     0.00136    -0.03591
           OZ1             -0.00109    -0.00148     0.00067     0.00102    -0.02885
           HX2              0.00112     0.00177    -0.00159    -0.00224     0.11254
           HY2              0.00736    -0.00196    -0.00868    -0.00997     0.34280
           HZ2              0.00735     0.00234    -0.00907    -0.01249     0.53237
           HX3             -0.00146     0.00470    -0.01103    -0.01041     0.66765
           HY3              0.02204    -0.00856     0.00063    -0.01298     0.23678
           HZ3             -0.00902     0.00781    -0.00056     0.00431    -0.07736
           OX4             -0.03101     0.00333    -0.00802     0.00616    -0.00176
           OY4             -0.00093    -0.01059    -0.00230    -0.00038    -0.00071
           OZ4              0.07418     0.00016    -0.00135    -0.01762    -0.00163
           HX5              0.09702    -0.00393    -0.00976    -0.01177     0.00122
           HY5              0.49720    -0.04228    -0.00072    -0.07088    -0.00929
           HZ5             -0.45841     0.03141    -0.00553     0.05828     0.01053
           CX6              0.04649     0.01140    -0.05343     0.01109    -0.00083
           CY6             -0.05310    -0.09390    -0.02363     0.01142     0.00087
           CZ6             -0.08494     0.03645    -0.01032    -0.05282    -0.00020
           HX7             -0.01157     0.00097     0.66144     0.08935     0.01334
           HY7             -0.32158     0.41121     0.15304     0.16881     0.00911
           HZ7              0.16119    -0.48457     0.18401    -0.15378    -0.00026
           HX8             -0.15644    -0.05301     0.22785    -0.50898    -0.00508
           HY8              0.20405     0.52768    -0.31505    -0.20459    -0.01253
           HZ8              0.05783     0.06177    -0.18782     0.35124     0.00515
           HX9              0.01564    -0.13229    -0.11475     0.20105     0.00486
           HY9              0.26296     0.39679     0.48070    -0.02190     0.00394
           HZ9              0.09241    -0.03184     0.15263     0.64496     0.01588

                             16 A        17 A        18 A        19 A        20 A  
 Wavenumbers [cm-1]         3158.45     3212.12     3278.03     4097.09     4188.24
 Intensities [km/mol]          0.00        0.00        0.00        0.00        0.00
 Intensities [relative]        0.00        0.00        0.00        0.00        0.00
           OX1              0.00010     0.00008    -0.00005    -0.01732     0.00300
           OY1             -0.00018     0.00006     0.00008    -0.02893     0.00071
           OZ1             -0.00037     0.00004    -0.00023    -0.03976    -0.00095
           HX2             -0.00023    -0.00010     0.00046     0.36379    -0.04938
           HY2             -0.00023    -0.00010    -0.00009     0.06556    -0.01008
           HZ2             -0.00060    -0.00051     0.00008    -0.15655     0.01899
           HX3             -0.00127    -0.00162     0.00053    -0.09014     0.00229
           HY3              0.00300    -0.00132    -0.00191     0.39413    -0.00139
           HZ3              0.00406    -0.00002     0.00222     0.78978    -0.00387
           OX4              0.00001     0.00060    -0.00058     0.00078     0.02443
           OY4             -0.00160     0.00012     0.00064    -0.00146    -0.04406
           OZ4              0.00061     0.00008     0.00120    -0.00112    -0.03402
           HX5              0.00135    -0.00018     0.00470    -0.01031    -0.39150
           HY5             -0.00561     0.00015    -0.00209     0.01586     0.68671
           HZ5              0.00143     0.00106    -0.01152     0.01651     0.55272
           CX6             -0.00804    -0.08411     0.03190    -0.00009     0.00068
           CY6             -0.02600    -0.01510    -0.04805     0.00107     0.00006
           CZ6              0.04143    -0.02921    -0.06580    -0.00041    -0.00148
           HX7             -0.10335    -0.02379    -0.31300     0.00070    -0.00368
           HY7              0.20216     0.00430     0.61366    -0.00204     0.00775
           HZ7              0.19768     0.00014     0.59373    -0.00027     0.00640
           HX8             -0.40670     0.37690     0.12161     0.00135    -0.00008
           HY8             -0.01465     0.01719     0.00186    -0.00209     0.00190
           HZ8             -0.54122     0.53254     0.14513     0.00295    -0.00112
           HX9              0.60429     0.63951    -0.18413    -0.00175    -0.00108
           HY9              0.15309     0.15663    -0.05062    -0.00189     0.00249
           HZ9             -0.15843    -0.18725     0.03842     0.00126    -0.00051

                             21 A  
 Wavenumbers [cm-1]         4212.37
 Intensities [km/mol]          0.00
 Intensities [relative]        0.00
           OX1             -0.05162
           OY1              0.00067
           OZ1              0.04056
           HX2              0.80706
           HY2              0.17054
           HZ2             -0.30299
           HX3              0.01271
           HY3             -0.18115
           HZ3             -0.34088
           OX4              0.00115
           OY4             -0.00204
           OZ4             -0.00164
           HX5             -0.01920
           HY5              0.03494
           HZ5              0.02624
           CX6              0.00006
           CY6             -0.00047
           CZ6              0.00014
           HX7             -0.00035
           HY7              0.00096
           HZ7              0.00062
           HX8             -0.00062
           HY8              0.00100
           HZ8             -0.00164
           HX9              0.00083
           HY9              0.00101
           HZ9             -0.00069


 Normal Modes of low/zero frequencies

                                  1           2           3           4           5
 Wavenumbers [cm-1]            0.00        0.00        0.00        0.00        0.00
 Intensities [km/mol]          0.00        0.00        0.00        0.00        0.00
 Intensities [relative]        0.00        0.00        0.00        0.00        0.00
           OX1             -0.00000    -0.00000    -0.00000     0.23484     0.00000
           OY1              0.22178     0.01847     0.02466    -0.00180    -0.01830
           OZ1             -0.03349     0.06301     0.05463    -0.00394    -0.09448
           HX2              0.00515    -0.01634    -0.01986     0.25075    -0.03656
           HY2              0.22244     0.04504     0.07649     0.02645     0.11456
           HZ2             -0.01870     0.03376     0.03108     0.05782    -0.11483
           HX3              0.00822     0.02611    -0.01521     0.16103    -0.04598
           HY3              0.16669    -0.00994     0.05037    -0.00384    -0.02877
           HZ3             -0.00458     0.07955     0.04029    -0.00839    -0.09252
           OX4              0.01231     0.10039    -0.00341     0.00777    -0.05432
           OY4              0.02935    -0.07148     0.13290     0.00106    -0.00796
           OZ4              0.02019     0.08516     0.02433     0.00232    -0.09569
           HX5              0.02667     0.10994    -0.04132    -0.05257    -0.14311
           HY5              0.00172    -0.09637     0.12465    -0.01141    -0.06705
           HZ5              0.06417     0.12238     0.00770    -0.02494    -0.08589
           CX6             -0.01817     0.15104     0.09951     0.00109     0.15102
           CY6             -0.01450    -0.09352     0.15449     0.00005    -0.01342
           CZ6             -0.06350     0.04619     0.06966     0.00011    -0.09631
           HX7             -0.03390     0.13658     0.13980     0.07483     0.24738
           HY7              0.02387    -0.06388     0.15619     0.01208     0.04377
           HZ7             -0.11246     0.00714     0.08920     0.02641    -0.10587
           HX8             -0.02003     0.18698     0.11617    -0.06176     0.17134
           HY8             -0.08874    -0.10997     0.23253     0.02080     0.08293
           HZ8             -0.06184     0.02028     0.05729     0.04546    -0.11140
           HX9             -0.02522     0.16810     0.12500    -0.01062     0.19978
           HY9             -0.01039    -0.12214     0.09146    -0.03289    -0.16823
           HZ9             -0.08420     0.07863     0.09897    -0.07189    -0.07264

                                  6
 Wavenumbers [cm-1]            0.00
 Intensities [km/mol]          0.00
 Intensities [relative]        0.00
           OX1             -0.00000
           OY1             -0.01885
           OZ1             -0.05603
           HX2              0.02223
           HY2             -0.15906
           HZ2             -0.08018
           HX3              0.08554
           HY3              0.00939
           HZ3             -0.06417
           OX4              0.18689
           OY4              0.03037
           OZ4             -0.07567
           HX5              0.30162
           HY5              0.10126
           HZ5             -0.08165
           CX6              0.01130
           CY6              0.04981
           CZ6             -0.04741
           HX7             -0.11828
           HY7             -0.02243
           HZ7             -0.03949
           HX8              0.03209
           HY8             -0.02852
           HZ8             -0.06211
           HX9             -0.02418
           HY9              0.21166
           HZ9             -0.01812


 Frequencies dumped to record   5400.2
 Frequency information read from record  5400.2

 Zero point energy:  0.08095933 [H]    17768.52 [1/CM]      212.56 [KJ/MOL]


 **********************************************************************************************************************************
 DATASETS  * FILE   NREC   LENGTH (MB)   RECORD NAMES
              1      18       29.03       500      610      700      900      950      970     1000      129      960     1100   
                                          VAR    BASINP    GEOM    SYMINP    ZMAT    AOBASIS   BASIS     P2S    ABASIS      S 
                                         1400     1410     1200     1210     1080     1600     1650     1700   
                                           T        V       H0       H01     AOSYM     SMH    MOLCAS    OPER   

              2       7        0.77       700     1000      520     2100     5300     5450     5400   
                                         GEOM     BASIS   MCVARS     RHF     HESS     NMOD     FREQ   

              4       5        3.38      4100     4000     4200     4300     4400   

 PROGRAMS   *        TOTAL      FREQ      OPTG    HF-SCF       INT
 CPU TIMES  *        22.72      5.36     16.75      0.13      0.35
 REAL TIME  *        25.02 SEC
 DISK USED  *        30.31 MB (local),      284.64 MB (total)
 SF USED    *         3.38 MB
 GA USED    *         0.00 MB       (max)       0.00 MB       (current)
 **********************************************************************************************************************************

 Dump information in style MOLDEN to methanol_water.molden                                                           

 Molecular orbitals read from record     2100.2  Type=RHF/CANONICAL  
 Occupation numbers read from record     2100.2  Type=RHF/RHF  
 Orbital energies read from record       2100.2  Type=RHF/CANONICAL  
 Redundancy group numbers read from rec  2100.2  Type=RHF/RHF  

 DUMP ORBITAL  1.1 AS ORBITAL    1  occ=    2.0000  eig=  -20.5646  GROUP=   2
 DUMP ORBITAL  2.1 AS ORBITAL    2  occ=    2.0000  eig=  -20.5118  GROUP=   2
 DUMP ORBITAL  3.1 AS ORBITAL    3  occ=    2.0000  eig=  -11.2768  GROUP=   2
 DUMP ORBITAL  4.1 AS ORBITAL    4  occ=    2.0000  eig=   -1.3821  GROUP=   2
 DUMP ORBITAL  5.1 AS ORBITAL    5  occ=    2.0000  eig=   -1.3200  GROUP=   2
 DUMP ORBITAL  6.1 AS ORBITAL    6  occ=    2.0000  eig=   -0.9412  GROUP=   2
 DUMP ORBITAL  7.1 AS ORBITAL    7  occ=    2.0000  eig=   -0.7192  GROUP=   2
 DUMP ORBITAL  8.1 AS ORBITAL    8  occ=    2.0000  eig=   -0.6863  GROUP=   2
 DUMP ORBITAL  9.1 AS ORBITAL    9  occ=    2.0000  eig=   -0.6352  GROUP=   2
 DUMP ORBITAL 10.1 AS ORBITAL   10  occ=    2.0000  eig=   -0.6118  GROUP=   2
 DUMP ORBITAL 11.1 AS ORBITAL   11  occ=    2.0000  eig=   -0.5484  GROUP=   2
 DUMP ORBITAL 12.1 AS ORBITAL   12  occ=    2.0000  eig=   -0.5137  GROUP=   2
 DUMP ORBITAL 13.1 AS ORBITAL   13  occ=    2.0000  eig=   -0.4723  GROUP=   2
 DUMP ORBITAL 14.1 AS ORBITAL   14  occ=    2.0000  eig=   -0.4651  GROUP=   2

 Total charge:      28.000000
 Frequency information read from record  5400.2

 **********************************************************************************************************************************

 HF/6-311G(D,P)//HF/6-311G(D,P) energy=   -191.131827093275

    OPTG(HF-SCF)          HF-SCF
   -191.13182709   -191.12977451
 **********************************************************************************************************************************
 Molpro calculation terminated
