 Entering Gaussian System, Link 0=g16
 Input=co2.com
 Output=co2.log
 Initial command:
 /usr/local/g16/l1.exe "/scratch/lme/Gau-1236251.inp" -scrdir="/scratch/lme/"
 Entering Link 1 = /usr/local/g16/l1.exe PID=   1236253.
  
 Copyright (c) 1988,1990,1992,1993,1995,1998,2003,2009,2016,
            Gaussian, Inc.  All Rights Reserved.
  
 This is part of the Gaussian(R) 16 program.  It is based on
 the Gaussian(R) 09 system (copyright 2009, Gaussian, Inc.),
 the Gaussian(R) 03 system (copyright 2003, Gaussian, Inc.),
 the Gaussian(R) 98 system (copyright 1998, Gaussian, Inc.),
 the Gaussian(R) 94 system (copyright 1995, Gaussian, Inc.),
 the Gaussian 92(TM) system (copyright 1992, Gaussian, Inc.),
 the Gaussian 90(TM) system (copyright 1990, Gaussian, Inc.),
 the Gaussian 88(TM) system (copyright 1988, Gaussian, Inc.),
 the Gaussian 86(TM) system (copyright 1986, Carnegie Mellon
 University), and the Gaussian 82(TM) system (copyright 1983,
 Carnegie Mellon University). Gaussian is a federally registered
 trademark of Gaussian, Inc.
  
 This software contains proprietary and confidential information,
 including trade secrets, belonging to Gaussian, Inc.
  
 This software is provided under written license and may be
 used, copied, transmitted, or stored only in accord with that
 written license.
  
 The following legend is applicable only to US Government
 contracts under FAR:
  
                    RESTRICTED RIGHTS LEGEND
  
 Use, reproduction and disclosure by the US Government is
 subject to restrictions as set forth in subparagraphs (a)
 and (c) of the Commercial Computer Software - Restricted
 Rights clause in FAR 52.227-19.
  
 Gaussian, Inc.
 340 Quinnipiac St., Bldg. 40, Wallingford CT 06492
  
  
 ---------------------------------------------------------------
 Warning -- This program may not be used in any manner that
 competes with the business of Gaussian, Inc. or will provide
 assistance to any competitor of Gaussian, Inc.  The licensee
 of this program is prohibited from giving any competitor of
 Gaussian, Inc. access to this program.  By using this program,
 the user acknowledges that Gaussian, Inc. is engaged in the
 business of creating and licensing software in the field of
 computational chemistry and represents and warrants to the
 licensee that it is not a competitor of Gaussian, Inc. and that
 it will not use this program in any manner prohibited above.
 ---------------------------------------------------------------
  

 Cite this work as:
 Gaussian 16, Revision A.03,
 M. J. Frisch, G. W. Trucks, H. B. Schlegel, G. E. Scuseria, 
 M. A. Robb, J. R. Cheeseman, G. Scalmani, V. Barone, 
 G. A. Petersson, H. Nakatsuji, X. Li, M. Caricato, A. V. Marenich, 
 J. Bloino, B. G. Janesko, R. Gomperts, B. Mennucci, H. P. Hratchian, 
 J. V. Ortiz, A. F. Izmaylov, J. L. Sonnenberg, D. Williams-Young, 
 F. Ding, F. Lipparini, F. Egidi, J. Goings, B. Peng, A. Petrone, 
 T. Henderson, D. Ranasinghe, V. G. Zakrzewski, J. Gao, N. Rega, 
 G. Zheng, W. Liang, M. Hada, M. Ehara, K. Toyota, R. Fukuda, 
 J. Hasegawa, M. Ishida, T. Nakajima, Y. Honda, O. Kitao, H. Nakai, 
 T. Vreven, K. Throssell, J. A. Montgomery, Jr., J. E. Peralta, 
 F. Ogliaro, M. J. Bearpark, J. J. Heyd, E. N. Brothers, K. N. Kudin, 
 V. N. Staroverov, T. A. Keith, R. Kobayashi, J. Normand, 
 K. Raghavachari, A. P. Rendell, J. C. Burant, S. S. Iyengar, 
 J. Tomasi, M. Cossi, J. M. Millam, M. Klene, C. Adamo, R. Cammi, 
 J. W. Ochterski, R. L. Martin, K. Morokuma, O. Farkas, 
 J. B. Foresman, and D. J. Fox, Gaussian, Inc., Wallingford CT, 2016.
 
 ******************************************
 Gaussian 16:  ES64L-G16RevA.03 25-Dec-2016
                11-Sep-2024 
 ******************************************
 %chk=c2h2.chk
 --------------------
 #p opt freq hf/3-21g
 --------------------
 1/18=20,19=15,38=1/1,3;
 2/9=110,12=2,17=6,18=5,40=1/2;
 3/5=5,11=9,25=1,30=1,71=1/1,2,3;
 4//1;
 5/5=2,38=5/2;
 6/7=2,8=2,9=2,10=2,28=1/1;
 7//1,2,3,16;
 1/18=20,19=15/3(2);
 2/9=110/2;
 99//99;
 2/9=110/2;
 3/5=5,11=9,25=1,30=1,71=1/1,2,3;
 4/5=5,16=3,69=1/1;
 5/5=2,38=5/2;
 7//1,2,3,16;
 1/18=20,19=15/3(-5);
 2/9=110/2;
 6/7=2,8=2,9=2,10=2,19=2,28=1/1;
 99/9=1/99;
 Leave Link    1 at Wed Sep 11 13:57:53 2024, MaxMem=           0 cpu:               0.0 elap:               0.0
 (Enter /usr/local/g16/l101.exe)
 ---------------
 CO2 Calculation
 ---------------
 Symbolic Z-matrix:
 Charge =  0 Multiplicity = 1
 X1
 C1                   X1    1. 
 O1                   C1   r1       X1    90. 
 O2                   C1   r1       X1    90.      O1    180.     0
       Variables:
  r1                    1.1558                   
 
 ITRead=  0  0  0
 MicOpt= -1 -1 -1
 NAtoms=      3 NQM=        3 NQMF=       0 NMMI=      0 NMMIF=      0
                NMic=       0 NMicF=      0.
                    Isotopes and Nuclear Properties:
 (Nuclear quadrupole moments (NQMom) in fm**2, nuclear magnetic moments (NMagM)
  in nuclear magnetons)

  Atom         1           2           3
 IAtWgt=          12          16          16
 AtmWgt=  12.0000000  15.9949146  15.9949146
 NucSpn=           0           0           0
 AtZEff=  -0.0000000  -0.0000000  -0.0000000
 NQMom=    0.0000000   0.0000000   0.0000000
 NMagM=    0.0000000   0.0000000   0.0000000
 AtZNuc=   6.0000000   8.0000000   8.0000000
 Leave Link  101 at Wed Sep 11 13:57:53 2024, MaxMem=   104857600 cpu:               0.1 elap:               0.1
 (Enter /usr/local/g16/l103.exe)

 GradGradGradGradGradGradGradGradGradGradGradGradGradGradGradGradGradGrad
 Berny optimization.
 Initialization pass.
                           ----------------------------
                           !    Initial Parameters    !
                           ! (Angstroms and Degrees)  !
 --------------------------                            --------------------------
 ! Name  Definition              Value          Derivative Info.                !
 --------------------------------------------------------------------------------
 ! R1    R(1,2)                  1.1558         estimate D2E/DX2                !
 ! R2    R(1,3)                  1.1558         estimate D2E/DX2                !
 ! A1    L(2,1,3,-2,-1)        180.0            estimate D2E/DX2                !
 ! A2    L(2,1,3,-3,-2)        180.0            estimate D2E/DX2                !
 --------------------------------------------------------------------------------
 Trust Radius=3.00D-01 FncErr=1.00D-07 GrdErr=1.00D-07 EigMax=2.50D+02 EigMin=1.00D-04
 Number of steps in this run=     20 maximum allowed number of steps=    100.
 GradGradGradGradGradGradGradGradGradGradGradGradGradGradGradGradGradGrad

 Leave Link  103 at Wed Sep 11 13:57:53 2024, MaxMem=   104857600 cpu:               0.0 elap:               0.0
 (Enter /usr/local/g16/l202.exe)
                          Input orientation:                          
 ---------------------------------------------------------------------
 Center     Atomic      Atomic             Coordinates (Angstroms)
 Number     Number       Type             X           Y           Z
 ---------------------------------------------------------------------
      1          6           0        0.000000    0.000000    1.000000
      2          8           0        1.155800    0.000000    1.000000
      3          8           0       -1.155800    0.000000    1.000000
 ---------------------------------------------------------------------
                    Distance matrix (angstroms):
                    1          2          3
     1  C    0.000000
     2  O    1.155800   0.000000
     3  O    1.155800   2.311600   0.000000
 Stoichiometry    CO2
 Framework group  D*H[O(C),C*(O.O)]
 Deg. of freedom     1
 Full point group                 D*H     NOp   8
 Largest Abelian subgroup         D2H     NOp   8
 Largest concise Abelian subgroup C2      NOp   2
                         Standard orientation:                         
 ---------------------------------------------------------------------
 Center     Atomic      Atomic             Coordinates (Angstroms)
 Number     Number       Type             X           Y           Z
 ---------------------------------------------------------------------
      1          6           0        0.000000    0.000000    0.000000
      2          8           0        0.000000    0.000000    1.155800
      3          8           0        0.000000    0.000000   -1.155800
 ---------------------------------------------------------------------
 Rotational constants (GHZ):           0.0000000          11.8260551          11.8260551
 Leave Link  202 at Wed Sep 11 13:57:53 2024, MaxMem=   104857600 cpu:               0.0 elap:               0.0
 (Enter /usr/local/g16/l301.exe)
 Standard basis: 3-21G (6D, 7F)
 Ernie: Thresh=  0.10000D-02 Tol=  0.10000D-05 Strict=F.
 There are     8 symmetry adapted cartesian basis functions of AG  symmetry.
 There are     0 symmetry adapted cartesian basis functions of B1G symmetry.
 There are     2 symmetry adapted cartesian basis functions of B2G symmetry.
 There are     2 symmetry adapted cartesian basis functions of B3G symmetry.
 There are     0 symmetry adapted cartesian basis functions of AU  symmetry.
 There are     7 symmetry adapted cartesian basis functions of B1U symmetry.
 There are     4 symmetry adapted cartesian basis functions of B2U symmetry.
 There are     4 symmetry adapted cartesian basis functions of B3U symmetry.
 There are     8 symmetry adapted basis functions of AG  symmetry.
 There are     0 symmetry adapted basis functions of B1G symmetry.
 There are     2 symmetry adapted basis functions of B2G symmetry.
 There are     2 symmetry adapted basis functions of B3G symmetry.
 There are     0 symmetry adapted basis functions of AU  symmetry.
 There are     7 symmetry adapted basis functions of B1U symmetry.
 There are     4 symmetry adapted basis functions of B2U symmetry.
 There are     4 symmetry adapted basis functions of B3U symmetry.
    27 basis functions,    45 primitive gaussians,    27 cartesian basis functions
    11 alpha electrons       11 beta electrons
       nuclear repulsion energy        58.6041555613 Hartrees.
 IExCor=    0 DFT=F Ex=HF Corr=None ExCW=0 ScaHFX=  1.000000
 ScaDFX=  1.000000  1.000000  1.000000  1.000000 ScalE2=  1.000000  1.000000
 IRadAn=      5 IRanWt=     -1 IRanGd=            0 ICorTp=0 IEmpDi=  4
 NAtoms=    3 NActive=    3 NUniq=    2 SFac= 2.25D+00 NAtFMM=   60 NAOKFM=F Big=F
 Integral buffers will be    131072 words long.
 Raffenetti 1 integral format.
 Two-electron integral symmetry is turned on.
 Leave Link  301 at Wed Sep 11 13:57:53 2024, MaxMem=   104857600 cpu:               0.0 elap:               0.0
 (Enter /usr/local/g16/l302.exe)
 NPDir=0 NMtPBC=     1 NCelOv=     1 NCel=       1 NClECP=     1 NCelD=      1
         NCelK=      1 NCelE2=     1 NClLst=     1 CellRange=     0.0.
 One-electron integrals computed using PRISM.
 One-electron integral symmetry used in STVInt
 NBasis=    27 RedAO= T EigKep=  2.09D-02  NBF=     8     0     2     2     0     7     4     4
 NBsUse=    27 1.00D-06 EigRej= -1.00D+00 NBFU=     8     0     2     2     0     7     4     4
 Leave Link  302 at Wed Sep 11 13:57:53 2024, MaxMem=   104857600 cpu:               0.0 elap:               0.1
 (Enter /usr/local/g16/l303.exe)
 DipDrv:  MaxL=1.
 Leave Link  303 at Wed Sep 11 13:57:53 2024, MaxMem=   104857600 cpu:               0.0 elap:               0.0
 (Enter /usr/local/g16/l401.exe)
 ExpMin= 1.96D-01 ExpMax= 3.22D+02 ExpMxC= 3.22D+02 IAcc=3 IRadAn=         5 AccDes= 0.00D+00
 Harris functional with IExCor=  205 and IRadAn=       5 diagonalized for initial guess.
 HarFok:  IExCor=  205 AccDes= 0.00D+00 IRadAn=         5 IDoV= 1 UseB2=F ITyADJ=14
 ICtDFT=  3500011 ScaDFX=  1.000000  1.000000  1.000000  1.000000
 FoFCou: FMM=F IPFlag=           0 FMFlag=      100000 FMFlg1=           0
         NFxFlg=           0 DoJE=T BraDBF=F KetDBF=T FulRan=T
         wScrn=  0.000000 ICntrl=       500 IOpCl=  0 I1Cent=   200000004 NGrid=           0
         NMat0=    1 NMatS0=      1 NMatT0=    0 NMatD0=    1 NMtDS0=    0 NMtDT0=    0
 Petite list used in FoFCou.
 Harris En= -186.610538147394    
 JPrj=0 DoOrth=F DoCkMO=F.
 Initial guess orbital symmetries:
       Occupied  (SGU) (SGG) (SGG) (SGG) (SGU) (SGG) (SGU) (PIU)
                 (PIU) (PIG) (PIG)
       Virtual   (PIU) (PIU) (SGG) (SGU) (PIU) (PIU) (SGU) (SGG)
                 (PIG) (PIG) (SGU) (SGG) (PIU) (PIU) (SGG) (SGU)
 The electronic state of the initial guess is 1-SGG.
 Leave Link  401 at Wed Sep 11 13:57:54 2024, MaxMem=   104857600 cpu:               0.1 elap:               0.1
 (Enter /usr/local/g16/l502.exe)
 Keep R1 ints in memory in symmetry-blocked form, NReq=878874.
 FoFCou: FMM=F IPFlag=           0 FMFlag=           0 FMFlg1=           0
         NFxFlg=           0 DoJE=F BraDBF=F KetDBF=F FulRan=T
         wScrn=  0.000000 ICntrl=       600 IOpCl=  0 I1Cent=           0 NGrid=           0
         NMat0=    1 NMatS0=    378 NMatT0=    0 NMatD0=    1 NMtDS0=    0 NMtDT0=    0
 Petite list used in FoFCou.
 Closed shell SCF:
 Using DIIS extrapolation, IDIIS=  1040.
 NGot=   104857600 LenX=   104841176 LenY=   104840006
 Requested convergence on RMS density matrix=1.00D-08 within 128 cycles.
 Requested convergence on MAX density matrix=1.00D-06.
 Requested convergence on             energy=1.00D-06.
 No special actions if energy rises.

 Cycle   1  Pass 1  IDiag  1:
 E= -186.498276965505    
 DIIS: error= 6.33D-02 at cycle   1 NSaved=   1.
 NSaved= 1 IEnMin= 1 EnMin= -186.498276965505     IErMin= 1 ErrMin= 6.33D-02
 ErrMax= 6.33D-02  0.00D+00 EMaxC= 1.00D-01 BMatC= 1.50D-01 BMatP= 1.50D-01
 IDIUse=3 WtCom= 3.67D-01 WtEn= 6.33D-01
 Coeff-Com:  0.100D+01
 Coeff-En:   0.100D+01
 Coeff:      0.100D+01
 Gap=     0.690 Goal=   None    Shift=    0.000
 GapD=    0.690 DampG=2.000 DampE=0.500 DampFc=1.0000 IDamp=-1.
 RMSDP=7.84D-03 MaxDP=5.11D-02              OVMax= 5.99D-02

 Cycle   2  Pass 1  IDiag  1:
 E= -186.542497540425     Delta-E=       -0.044220574919 Rises=F Damp=F
 DIIS: error= 3.24D-02 at cycle   2 NSaved=   2.
 NSaved= 2 IEnMin= 2 EnMin= -186.542497540425     IErMin= 2 ErrMin= 3.24D-02
 ErrMax= 3.24D-02  0.00D+00 EMaxC= 1.00D-01 BMatC= 2.89D-02 BMatP= 1.50D-01
 IDIUse=3 WtCom= 6.76D-01 WtEn= 3.24D-01
 Coeff-Com:  0.254D+00 0.746D+00
 Coeff-En:   0.000D+00 0.100D+01
 Coeff:      0.172D+00 0.828D+00
 Gap=     0.746 Goal=   None    Shift=    0.000
 RMSDP=4.28D-03 MaxDP=2.52D-02 DE=-4.42D-02 OVMax= 5.12D-02

 Cycle   3  Pass 1  IDiag  1:
 E= -186.558296454284     Delta-E=       -0.015798913859 Rises=F Damp=F
 DIIS: error= 1.34D-02 at cycle   3 NSaved=   3.
 NSaved= 3 IEnMin= 3 EnMin= -186.558296454284     IErMin= 3 ErrMin= 1.34D-02
 ErrMax= 1.34D-02  0.00D+00 EMaxC= 1.00D-01 BMatC= 4.54D-03 BMatP= 2.89D-02
 IDIUse=3 WtCom= 8.66D-01 WtEn= 1.34D-01
 Coeff-Com: -0.334D-01 0.256D+00 0.778D+00
 Coeff-En:   0.000D+00 0.000D+00 0.100D+01
 Coeff:     -0.289D-01 0.222D+00 0.807D+00
 Gap=     0.730 Goal=   None    Shift=    0.000
 RMSDP=1.39D-03 MaxDP=1.04D-02 DE=-1.58D-02 OVMax= 1.23D-02

 Cycle   4  Pass 1  IDiag  1:
 E= -186.561192991584     Delta-E=       -0.002896537300 Rises=F Damp=F
 DIIS: error= 1.77D-03 at cycle   4 NSaved=   4.
 NSaved= 4 IEnMin= 4 EnMin= -186.561192991584     IErMin= 4 ErrMin= 1.77D-03
 ErrMax= 1.77D-03  0.00D+00 EMaxC= 1.00D-01 BMatC= 4.35D-05 BMatP= 4.54D-03
 IDIUse=3 WtCom= 9.82D-01 WtEn= 1.77D-02
 Coeff-Com:  0.231D-02-0.565D-01-0.633D-01 0.112D+01
 Coeff-En:   0.000D+00 0.000D+00 0.000D+00 0.100D+01
 Coeff:      0.227D-02-0.555D-01-0.622D-01 0.112D+01
 Gap=     0.733 Goal=   None    Shift=    0.000
 RMSDP=2.49D-04 MaxDP=1.60D-03 DE=-2.90D-03 OVMax= 3.21D-03

 Cycle   5  Pass 1  IDiag  1:
 E= -186.561252727400     Delta-E=       -0.000059735816 Rises=F Damp=F
 DIIS: error= 4.79D-04 at cycle   5 NSaved=   5.
 NSaved= 5 IEnMin= 5 EnMin= -186.561252727400     IErMin= 5 ErrMin= 4.79D-04
 ErrMax= 4.79D-04  0.00D+00 EMaxC= 1.00D-01 BMatC= 2.98D-06 BMatP= 4.35D-05
 IDIUse=3 WtCom= 9.95D-01 WtEn= 4.79D-03
 Coeff-Com:  0.217D-02-0.150D-01-0.715D-01-0.103D+00 0.119D+01
 Coeff-En:   0.000D+00 0.000D+00 0.000D+00 0.000D+00 0.100D+01
 Coeff:      0.216D-02-0.150D-01-0.712D-01-0.102D+00 0.119D+01
 Gap=     0.732 Goal=   None    Shift=    0.000
 RMSDP=1.09D-04 MaxDP=6.89D-04 DE=-5.97D-05 OVMax= 4.39D-04

 Cycle   6  Pass 1  IDiag  1:
 E= -186.561257390809     Delta-E=       -0.000004663409 Rises=F Damp=F
 DIIS: error= 4.36D-05 at cycle   6 NSaved=   6.
 NSaved= 6 IEnMin= 6 EnMin= -186.561257390809     IErMin= 6 ErrMin= 4.36D-05
 ErrMax= 4.36D-05  0.00D+00 EMaxC= 1.00D-01 BMatC= 5.40D-08 BMatP= 2.98D-06
 IDIUse=1 WtCom= 1.00D+00 WtEn= 0.00D+00
 Coeff-Com: -0.665D-03 0.693D-02 0.228D-01-0.150D-01-0.352D+00 0.134D+01
 Coeff:     -0.665D-03 0.693D-02 0.228D-01-0.150D-01-0.352D+00 0.134D+01
 Gap=     0.732 Goal=   None    Shift=    0.000
 RMSDP=1.80D-05 MaxDP=1.45D-04 DE=-4.66D-06 OVMax= 9.80D-05

 Cycle   7  Pass 1  IDiag  1:
 E= -186.561257491500     Delta-E=       -0.000000100692 Rises=F Damp=F
 DIIS: error= 2.21D-06 at cycle   7 NSaved=   7.
 NSaved= 7 IEnMin= 7 EnMin= -186.561257491500     IErMin= 7 ErrMin= 2.21D-06
 ErrMax= 2.21D-06  0.00D+00 EMaxC= 1.00D-01 BMatC= 1.11D-10 BMatP= 5.40D-08
 IDIUse=1 WtCom= 1.00D+00 WtEn= 0.00D+00
 Coeff-Com:  0.108D-03-0.119D-02-0.373D-02 0.410D-02 0.581D-01-0.242D+00
 Coeff-Com:  0.119D+01
 Coeff:      0.108D-03-0.119D-02-0.373D-02 0.410D-02 0.581D-01-0.242D+00
 Coeff:      0.119D+01
 Gap=     0.732 Goal=   None    Shift=    0.000
 RMSDP=7.18D-07 MaxDP=4.62D-06 DE=-1.01D-07 OVMax= 2.89D-06

 Cycle   8  Pass 1  IDiag  1:
 E= -186.561257491634     Delta-E=       -0.000000000134 Rises=F Damp=F
 DIIS: error= 1.99D-07 at cycle   8 NSaved=   8.
 NSaved= 8 IEnMin= 8 EnMin= -186.561257491634     IErMin= 8 ErrMin= 1.99D-07
 ErrMax= 1.99D-07  0.00D+00 EMaxC= 1.00D-01 BMatC= 9.01D-13 BMatP= 1.11D-10
 IDIUse=1 WtCom= 1.00D+00 WtEn= 0.00D+00
 Coeff-Com: -0.438D-05 0.498D-04 0.136D-03-0.406D-03-0.187D-02 0.100D-01
 Coeff-Com: -0.106D+00 0.110D+01
 Coeff:     -0.438D-05 0.498D-04 0.136D-03-0.406D-03-0.187D-02 0.100D-01
 Coeff:     -0.106D+00 0.110D+01
 Gap=     0.732 Goal=   None    Shift=    0.000
 RMSDP=4.11D-08 MaxDP=2.44D-07 DE=-1.34D-10 OVMax= 2.80D-07

 Cycle   9  Pass 1  IDiag  1:
 E= -186.561257491635     Delta-E=       -0.000000000001 Rises=F Damp=F
 DIIS: error= 1.95D-08 at cycle   9 NSaved=   9.
 NSaved= 9 IEnMin= 9 EnMin= -186.561257491635     IErMin= 9 ErrMin= 1.95D-08
 ErrMax= 1.95D-08  0.00D+00 EMaxC= 1.00D-01 BMatC= 6.81D-15 BMatP= 9.01D-13
 IDIUse=1 WtCom= 1.00D+00 WtEn= 0.00D+00
 Coeff-Com:  0.405D-06-0.472D-05-0.120D-04 0.474D-04 0.157D-03-0.921D-03
 Coeff-Com:  0.997D-02-0.161D+00 0.115D+01
 Coeff:      0.405D-06-0.472D-05-0.120D-04 0.474D-04 0.157D-03-0.921D-03
 Coeff:      0.997D-02-0.161D+00 0.115D+01
 Gap=     0.732 Goal=   None    Shift=    0.000
 RMSDP=4.62D-09 MaxDP=3.90D-08 DE=-5.68D-13 OVMax= 7.74D-09

 SCF Done:  E(RHF) =  -186.561257492     A.U. after    9 cycles
            NFock=  9  Conv=0.46D-08     -V/T= 2.0029
 KE= 1.860140862629D+02 PE=-5.571988122194D+02 EE= 1.260193129036D+02
 Leave Link  502 at Wed Sep 11 13:57:54 2024, MaxMem=   104857600 cpu:               0.1 elap:               0.1
 (Enter /usr/local/g16/l601.exe)
 Copying SCF densities to generalized density rwf, IOpCl= 0 IROHF=0.

 **********************************************************************

            Population analysis using the SCF density.

 **********************************************************************

 Orbital symmetries:
       Occupied  (SGU) (SGG) (SGG) (SGG) (SGU) (SGG) (PIU) (PIU)
                 (SGU) (PIG) (PIG)
       Virtual   (PIU) (PIU) (SGG) (SGU) (PIU) (PIU) (SGU) (SGG)
                 (PIG) (PIG) (SGU) (SGG) (PIU) (PIU) (SGG) (SGU)
 The electronic state is 1-SGG.
 Alpha  occ. eigenvalues --  -20.55918 -20.55783 -11.42220  -1.54909  -1.50326
 Alpha  occ. eigenvalues --   -0.77200  -0.72221  -0.72221  -0.72211  -0.52149
 Alpha  occ. eigenvalues --   -0.52149
 Alpha virt. eigenvalues --    0.21101   0.21101   0.29420   0.67026   0.84711
 Alpha virt. eigenvalues --    0.84711   1.21371   1.27677   1.73528   1.73528
 Alpha virt. eigenvalues --    1.82490   1.84842   1.95011   1.95011   3.33189
 Alpha virt. eigenvalues --    3.93674
          Condensed to atoms (all electrons):
               1          2          3
     1  C    3.910975   0.503207   0.503207
     2  O    0.503207   8.061504  -0.023406
     3  O    0.503207  -0.023406   8.061504
 Mulliken charges:
               1
     1  C    1.082610
     2  O   -0.541305
     3  O   -0.541305
 Sum of Mulliken charges =  -0.00000
 Mulliken charges with hydrogens summed into heavy atoms:
               1
     1  C    1.082610
     2  O   -0.541305
     3  O   -0.541305
 Electronic spatial extent (au):  <R**2>=            113.6421
 Charge=             -0.0000 electrons
 Dipole moment (field-independent basis, Debye):
    X=             -0.0000    Y=              0.0000    Z=             -0.0000  Tot=              0.0000
 Quadrupole moment (field-independent basis, Debye-Ang):
   XX=            -14.3717   YY=            -14.3717   ZZ=            -21.4456
   XY=              0.0000   XZ=              0.0000   YZ=              0.0000
 Traceless Quadrupole moment (field-independent basis, Debye-Ang):
   XX=              2.3580   YY=              2.3580   ZZ=             -4.7159
   XY=              0.0000   XZ=              0.0000   YZ=              0.0000
 Octapole moment (field-independent basis, Debye-Ang**2):
  XXX=             -0.0000  YYY=              0.0000  ZZZ=             -0.0000  XYY=             -0.0000
  XXY=              0.0000  XXZ=              0.0000  XZZ=             -0.0000  YZZ=             -0.0000
  YYZ=             -0.0000  XYZ=             -0.0000
 Hexadecapole moment (field-independent basis, Debye-Ang**3):
 XXXX=             -9.6354 YYYY=             -9.6354 ZZZZ=           -103.2766 XXXY=              0.0000
 XXXZ=              0.0000 YYYX=              0.0000 YYYZ=              0.0000 ZZZX=              0.0000
 ZZZY=              0.0000 XXYY=             -3.2118 XXZZ=            -17.5704 YYZZ=            -17.5704
 XXYZ=              0.0000 YYXZ=              0.0000 ZZXY=             -0.0000
 N-N= 5.860415556131D+01 E-N=-5.571988122574D+02  KE= 1.860140862629D+02
 Symmetry AG   KE= 1.006590894905D+02
 Symmetry B1G  KE= 0.000000000000D+00
 Symmetry B2G  KE= 4.701408870248D+00
 Symmetry B3G  KE= 4.701408870248D+00
 Symmetry AU   KE= 0.000000000000D+00
 Symmetry B1U  KE= 6.886172278146D+01
 Symmetry B2U  KE= 3.545228125185D+00
 Symmetry B3U  KE= 3.545228125185D+00
 No NMR shielding tensors so no spin-rotation constants.
 Leave Link  601 at Wed Sep 11 13:57:54 2024, MaxMem=   104857600 cpu:               0.1 elap:               0.1
 (Enter /usr/local/g16/l701.exe)
 ... and contract with generalized density number  0.
 Compute integral first derivatives.
 Leave Link  701 at Wed Sep 11 13:57:54 2024, MaxMem=   104857600 cpu:               0.1 elap:               0.1
 (Enter /usr/local/g16/l702.exe)
 L702 exits ... SP integral derivatives will be done elsewhere.
 Leave Link  702 at Wed Sep 11 13:57:54 2024, MaxMem=   104857600 cpu:               0.0 elap:               0.0
 (Enter /usr/local/g16/l703.exe)
 Integral derivatives from FoFJK, PRISM(SPDF).
 Compute integral first derivatives, UseDBF=F ICtDFT=           0.
 Calling FoFJK, ICntrl=      2127 FMM=F ISym2X=1 I1Cent= 0 IOpClX= 0 NMat=1 NMatS=1 NMatT=0.
 FoFJK:  IHMeth= 1 ICntrl=    2127 DoSepK=F KAlg= 0 I1Cent=           0 FoldK=F
 IRaf=         0 NMat=       1 IRICut=       1 DoRegI=T DoRafI=F ISym2E= 1 IDoP0=0 IntGTp=1.
 FoFCou: FMM=F IPFlag=           0 FMFlag=      100000 FMFlg1=         800
         NFxFlg=           0 DoJE=F BraDBF=F KetDBF=F FulRan=T
         wScrn=  0.000000 ICntrl=      2127 IOpCl=  0 I1Cent=           0 NGrid=           0
         NMat0=    1 NMatS0=      1 NMatT0=    0 NMatD0=    1 NMtDS0=    0 NMtDT0=    0
 Petite list used in FoFCou.
 Leave Link  703 at Wed Sep 11 13:57:54 2024, MaxMem=   104857600 cpu:               0.1 elap:               0.1
 (Enter /usr/local/g16/l716.exe)
 Dipole        =-1.36979867D-16 9.57101599D-35 0.00000000D+00
 ***** Axes restored to original set *****
 -------------------------------------------------------------------
 Center     Atomic                   Forces (Hartrees/Bohr)
 Number     Number              X              Y              Z
 -------------------------------------------------------------------
      1        6          -0.000000000    0.000000000   -0.000000000
      2        8          -0.000093778   -0.000000000   -0.000000000
      3        8           0.000093778   -0.000000000    0.000000000
 -------------------------------------------------------------------
 Cartesian Forces:  Max     0.000093778 RMS     0.000044207
 Leave Link  716 at Wed Sep 11 13:57:54 2024, MaxMem=   104857600 cpu:               0.0 elap:               0.0
 (Enter /usr/local/g16/l103.exe)

 GradGradGradGradGradGradGradGradGradGradGradGradGradGradGradGradGradGrad
 Berny optimization.
 FormGI is forming the generalized inverse of G from B-inverse, IUseBI=4.
 Internal  Forces:  Max     0.000093778 RMS     0.000066311
 Search for a local minimum.
 Step number   1 out of a maximum of   20
 All quantities printed in internal units (Hartrees-Bohrs-Radians)
 RMS Force = .66311D-04 SwitMx=.10000D-02 MixMth= 2
 Mixed Optimization -- En-DIIS/RFO-DIIS
 Second derivative matrix not updated -- first step.
 The second derivative matrix:
                          R1        R2        A1        A2
           R1           1.30582
           R2           0.00000   1.30582
           A1           0.00000   0.00000   0.04922
           A2           0.00000   0.00000   0.00000   0.04922
 ITU=  0
     Eigenvalues ---    0.04922   0.04922   1.30582   1.30582
 RFO step:  Lambda=-1.34693456D-08 EMin= 4.92207822D-02
 Linear search not attempted -- first point.
 Iteration  1 RMS(Cart)=  0.00005078 RMS(Int)=  0.00000000
 Iteration  2 RMS(Cart)=  0.00000000 RMS(Int)=  0.00000000
 ITry= 1 IFail=0 DXMaxC= 7.18D-05 DCOld= 1.00D+10 DXMaxT= 3.00D-01 DXLimC= 3.00D+00 Rises=F
 ClnCor:  largest displacement from symmetrization is 9.79D-14 for atom     1.
 Variable       Old X    -DE/DX   Delta X   Delta X   Delta X     New X
                                 (Linear)    (Quad)   (Total)
    R1        2.18415  -0.00009   0.00000  -0.00007  -0.00007   2.18407
    R2        2.18415  -0.00009   0.00000  -0.00007  -0.00007   2.18407
    A1        3.14159  -0.00000   0.00000  -0.00000   0.00000   3.14159
    A2        3.14159  -0.00000   0.00000  -0.00000   0.00000   3.14159
         Item               Value     Threshold  Converged?
 Maximum Force            0.000094     0.000450     YES
 RMS     Force            0.000066     0.000300     YES
 Maximum Displacement     0.000072     0.001800     YES
 RMS     Displacement     0.000051     0.001200     YES
 Predicted change in Energy=-6.734673D-09
 Optimization completed.
    -- Stationary point found.
                           ----------------------------
                           !   Optimized Parameters   !
                           ! (Angstroms and Degrees)  !
 --------------------------                            --------------------------
 ! Name  Definition              Value          Derivative Info.                !
 --------------------------------------------------------------------------------
 ! R1    R(1,2)                  1.1558         -DE/DX =   -0.0001              !
 ! R2    R(1,3)                  1.1558         -DE/DX =   -0.0001              !
 ! A1    L(2,1,3,-2,-1)        180.0            -DE/DX =    0.0                 !
 ! A2    L(2,1,3,-3,-2)        180.0            -DE/DX =    0.0                 !
 --------------------------------------------------------------------------------
 Lowest energy point so far.  Saving SCF results.
 Largest change from initial coordinates is atom    0       0.000 Angstoms.
 GradGradGradGradGradGradGradGradGradGradGradGradGradGradGradGradGradGrad

 Leave Link  103 at Wed Sep 11 13:57:54 2024, MaxMem=   104857600 cpu:               0.0 elap:               0.0
 (Enter /usr/local/g16/l202.exe)
                          Input orientation:                          
 ---------------------------------------------------------------------
 Center     Atomic      Atomic             Coordinates (Angstroms)
 Number     Number       Type             X           Y           Z
 ---------------------------------------------------------------------
      1          6           0        0.000000    0.000000    1.000000
      2          8           0        1.155800    0.000000    1.000000
      3          8           0       -1.155800    0.000000    1.000000
 ---------------------------------------------------------------------
                    Distance matrix (angstroms):
                    1          2          3
     1  C    0.000000
     2  O    1.155800   0.000000
     3  O    1.155800   2.311600   0.000000
 Stoichiometry    CO2
 Framework group  D*H[O(C),C*(O.O)]
 Deg. of freedom     1
 Full point group                 D*H     NOp   8
 RotChk:  IX=0 Diff= 7.19D-17
 Largest Abelian subgroup         D2H     NOp   8
 Largest concise Abelian subgroup C2      NOp   2
                         Standard orientation:                         
 ---------------------------------------------------------------------
 Center     Atomic      Atomic             Coordinates (Angstroms)
 Number     Number       Type             X           Y           Z
 ---------------------------------------------------------------------
      1          6           0        0.000000    0.000000    0.000000
      2          8           0        0.000000    0.000000    1.155800
      3          8           0        0.000000    0.000000   -1.155800
 ---------------------------------------------------------------------
 Rotational constants (GHZ):           0.0000000          11.8260551          11.8260551
 Leave Link  202 at Wed Sep 11 13:57:54 2024, MaxMem=   104857600 cpu:               0.0 elap:               0.0
 (Enter /usr/local/g16/l9999.exe)
 B after Tr=     0.000000    0.000000    0.000000
         Rot=    1.000000    0.000000    0.000000    0.000000 Ang=   0.00 deg.
 Final structure in terms of initial Z-matrix:
 X
 C,1,1.
 O,2,r1,1,90.
 O,2,r1,1,90.,3,180.,0
      Variables:
 r1=1.1558
 1\1\GINC-SV1-C724\FOpt\RHF\3-21G\C1O2\LME\11-Sep-2024\0\\#p opt freq h
 f/3-21g\\CO2 Calculation\\0,1\C,0.,0.,1.\O,1.1558,0.,1.\O,-1.1558,0.,1
 .\\Version=ES64L-G16RevA.03\State=1-SGG\HF=-186.5612575\RMSD=4.621e-09
 \RMSF=4.421e-05\Dipole=0.,0.,0.\Quadrupole=-3.5061673,1.7530837,1.7530
 837,0.,0.,0.\PG=D*H [O(C1),C*(O1.O1)]\\@


 "I COULD HAVE DONE IT IN A MUCH MORE COMPLICATED WAY"
 SAID THE RED QUEEN, IMMENSELY PROUD.

                                      -- LEWIS CARROLL
 Leave Link 9999 at Wed Sep 11 13:57:54 2024, MaxMem=   104857600 cpu:               0.0 elap:               0.0
 Job cpu time:       0 days  0 hours  0 minutes  0.7 seconds.
 Elapsed time:       0 days  0 hours  0 minutes  0.7 seconds.
 File lengths (MBytes):  RWF=      6 Int=      0 D2E=      0 Chk=      1 Scr=      1
 Normal termination of Gaussian 16 at Wed Sep 11 13:57:54 2024.
 (Enter /usr/local/g16/l1.exe)
 Link1:  Proceeding to internal job step number  2.
 --------------------------------------------------------------
 #P Geom=AllCheck Guess=TCheck SCRF=Check GenChk RHF/3-21G Freq
 --------------------------------------------------------------
 1/10=4,29=7,30=1,38=1,40=1/1,3;
 2/12=2,40=1/2;
 3/5=5,11=1,14=-4,25=1,30=1,70=2,71=2,116=1,140=1/1,2,3;
 4/5=101/1;
 5/5=2,38=6,98=1/2;
 8/6=4,10=90,11=11/1;
 10/13=10,15=4/2;
 11/6=3,8=1,9=11,15=111,16=1/1,2,10;
 10/6=1/2;
 6/7=2,8=2,9=2,10=2,28=1/1;
 7/8=1,10=1,25=1/1,2,3,16;
 1/10=4,30=1/3;
 99//99;
 Leave Link    1 at Wed Sep 11 13:57:54 2024, MaxMem=   104857600 cpu:               0.0 elap:               0.0
 (Enter /usr/local/g16/l101.exe)
 Structure from the checkpoint file:  "c2h2.chk"
 ---------------
 CO2 Calculation
 ---------------
 Charge =  0 Multiplicity = 1
 Redundant internal coordinates found in file.  (old form).
 C,0,0.,0.,1.
 O,0,1.1558,0.,1.
 O,0,-1.1558,0.,1.
 Recover connectivity data from disk.
 ITRead=  0  0  0
 MicOpt= -1 -1 -1
 NAtoms=      3 NQM=        3 NQMF=       0 NMMI=      0 NMMIF=      0
                NMic=       0 NMicF=      0.
                    Isotopes and Nuclear Properties:
 (Nuclear quadrupole moments (NQMom) in fm**2, nuclear magnetic moments (NMagM)
  in nuclear magnetons)

  Atom         1           2           3
 IAtWgt=          12          16          16
 AtmWgt=  12.0000000  15.9949146  15.9949146
 NucSpn=           0           0           0
 AtZEff=   3.6000000   5.6000000   5.6000000
 NQMom=    0.0000000   0.0000000   0.0000000
 NMagM=    0.0000000   0.0000000   0.0000000
 AtZNuc=   6.0000000   8.0000000   8.0000000
 Leave Link  101 at Wed Sep 11 13:57:54 2024, MaxMem=   104857600 cpu:               0.1 elap:               0.1
 (Enter /usr/local/g16/l103.exe)

 GradGradGradGradGradGradGradGradGradGradGradGradGradGradGradGradGradGrad
 Berny optimization.
 Initialization pass.
                           ----------------------------
                           !    Initial Parameters    !
                           ! (Angstroms and Degrees)  !
 --------------------------                            --------------------------
 ! Name  Definition              Value          Derivative Info.                !
 --------------------------------------------------------------------------------
 ! R1    R(1,2)                  1.1558         calculate D2E/DX2 analytically  !
 ! R2    R(1,3)                  1.1558         calculate D2E/DX2 analytically  !
 ! A1    L(2,1,3,-2,-1)        180.0            calculate D2E/DX2 analytically  !
 ! A2    L(2,1,3,-3,-2)        180.0            calculate D2E/DX2 analytically  !
 --------------------------------------------------------------------------------
 Trust Radius=3.00D-01 FncErr=1.00D-07 GrdErr=1.00D-07 EigMax=2.50D+02 EigMin=1.00D-04
 Number of steps in this run=      2 maximum allowed number of steps=      2.
 GradGradGradGradGradGradGradGradGradGradGradGradGradGradGradGradGradGrad

 Leave Link  103 at Wed Sep 11 13:57:54 2024, MaxMem=   104857600 cpu:               0.0 elap:               0.0
 (Enter /usr/local/g16/l202.exe)
                          Input orientation:                          
 ---------------------------------------------------------------------
 Center     Atomic      Atomic             Coordinates (Angstroms)
 Number     Number       Type             X           Y           Z
 ---------------------------------------------------------------------
      1          6           0        0.000000    0.000000    1.000000
      2          8           0        1.155800    0.000000    1.000000
      3          8           0       -1.155800    0.000000    1.000000
 ---------------------------------------------------------------------
                    Distance matrix (angstroms):
                    1          2          3
     1  C    0.000000
     2  O    1.155800   0.000000
     3  O    1.155800   2.311600   0.000000
 Stoichiometry    CO2
 Framework group  D*H[O(C),C*(O.O)]
 Deg. of freedom     1
 Full point group                 D*H     NOp   8
 RotChk:  IX=0 Diff= 7.19D-17
 Largest Abelian subgroup         D2H     NOp   8
 Largest concise Abelian subgroup C2      NOp   2
                         Standard orientation:                         
 ---------------------------------------------------------------------
 Center     Atomic      Atomic             Coordinates (Angstroms)
 Number     Number       Type             X           Y           Z
 ---------------------------------------------------------------------
      1          6           0        0.000000    0.000000    0.000000
      2          8           0        0.000000    0.000000    1.155800
      3          8           0        0.000000    0.000000   -1.155800
 ---------------------------------------------------------------------
 Rotational constants (GHZ):           0.0000000          11.8260551          11.8260551
 Leave Link  202 at Wed Sep 11 13:57:54 2024, MaxMem=   104857600 cpu:               0.0 elap:               0.0
 (Enter /usr/local/g16/l301.exe)
 Standard basis: 3-21G (6D, 7F)
 Ernie: Thresh=  0.10000D-02 Tol=  0.10000D-05 Strict=F.
 There are     8 symmetry adapted cartesian basis functions of AG  symmetry.
 There are     0 symmetry adapted cartesian basis functions of B1G symmetry.
 There are     2 symmetry adapted cartesian basis functions of B2G symmetry.
 There are     2 symmetry adapted cartesian basis functions of B3G symmetry.
 There are     0 symmetry adapted cartesian basis functions of AU  symmetry.
 There are     7 symmetry adapted cartesian basis functions of B1U symmetry.
 There are     4 symmetry adapted cartesian basis functions of B2U symmetry.
 There are     4 symmetry adapted cartesian basis functions of B3U symmetry.
 There are     8 symmetry adapted basis functions of AG  symmetry.
 There are     0 symmetry adapted basis functions of B1G symmetry.
 There are     2 symmetry adapted basis functions of B2G symmetry.
 There are     2 symmetry adapted basis functions of B3G symmetry.
 There are     0 symmetry adapted basis functions of AU  symmetry.
 There are     7 symmetry adapted basis functions of B1U symmetry.
 There are     4 symmetry adapted basis functions of B2U symmetry.
 There are     4 symmetry adapted basis functions of B3U symmetry.
    27 basis functions,    45 primitive gaussians,    27 cartesian basis functions
    11 alpha electrons       11 beta electrons
       nuclear repulsion energy        58.6041555613 Hartrees.
 IExCor=    0 DFT=F Ex=HF Corr=None ExCW=0 ScaHFX=  1.000000
 ScaDFX=  1.000000  1.000000  1.000000  1.000000 ScalE2=  1.000000  1.000000
 IRadAn=      5 IRanWt=     -1 IRanGd=            0 ICorTp=0 IEmpDi=  4
 NAtoms=    3 NActive=    3 NUniq=    2 SFac= 2.25D+00 NAtFMM=   60 NAOKFM=F Big=F
 Integral buffers will be    131072 words long.
 Raffenetti 1 integral format.
 Two-electron integral symmetry is turned on.
 Leave Link  301 at Wed Sep 11 13:57:54 2024, MaxMem=   104857600 cpu:               0.0 elap:               0.0
 (Enter /usr/local/g16/l302.exe)
 NPDir=0 NMtPBC=     1 NCelOv=     1 NCel=       1 NClECP=     1 NCelD=      1
         NCelK=      1 NCelE2=     1 NClLst=     1 CellRange=     0.0.
 One-electron integrals computed using PRISM.
 One-electron integral symmetry used in STVInt
 NBasis=    27 RedAO= T EigKep=  2.09D-02  NBF=     8     0     2     2     0     7     4     4
 NBsUse=    27 1.00D-06 EigRej= -1.00D+00 NBFU=     8     0     2     2     0     7     4     4
 Leave Link  302 at Wed Sep 11 13:57:54 2024, MaxMem=   104857600 cpu:               0.0 elap:               0.1
 (Enter /usr/local/g16/l303.exe)
 DipDrv:  MaxL=1.
 Leave Link  303 at Wed Sep 11 13:57:54 2024, MaxMem=   104857600 cpu:               0.0 elap:               0.0
 (Enter /usr/local/g16/l401.exe)
 Initial guess from the checkpoint file:  "c2h2.chk"
 B after Tr=     0.000000    0.000000    0.000000
         Rot=    1.000000    0.000000    0.000000    0.000000 Ang=   0.00 deg.
 Guess basis will be translated and rotated to current coordinates.
 JPrj=2 DoOrth=T DoCkMO=T.
 Initial guess orbital symmetries:
       Occupied  (SGU) (SGG) (SGG) (SGG) (SGU) (SGG) (PIU) (PIU)
                 (SGU) (PIG) (PIG)
       Virtual   (PIU) (PIU) (SGG) (SGU) (PIU) (PIU) (SGU) (SGG)
                 (PIG) (PIG) (SGU) (SGG) (PIU) (PIU) (SGG) (SGU)
 The electronic state of the initial guess is 1-SGG.
 Leave Link  401 at Wed Sep 11 13:57:54 2024, MaxMem=   104857600 cpu:               0.1 elap:               0.1
 (Enter /usr/local/g16/l502.exe)
 Keep R1 ints in memory in symmetry-blocked form, NReq=878874.
 FoFCou: FMM=F IPFlag=           0 FMFlag=           0 FMFlg1=           0
         NFxFlg=           0 DoJE=F BraDBF=F KetDBF=F FulRan=T
         wScrn=  0.000000 ICntrl=       600 IOpCl=  0 I1Cent=           0 NGrid=           0
         NMat0=    1 NMatS0=    378 NMatT0=    0 NMatD0=    1 NMtDS0=    0 NMtDT0=    0
 Petite list used in FoFCou.
 Closed shell SCF:
 Using DIIS extrapolation, IDIIS=  1040.
 NGot=   104857600 LenX=   104841176 LenY=   104840006
 Requested convergence on RMS density matrix=1.00D-08 within 128 cycles.
 Requested convergence on MAX density matrix=1.00D-06.
 Requested convergence on             energy=1.00D-06.
 No special actions if energy rises.

 Cycle   1  Pass 1  IDiag  1:
 E= -186.561257491635    
 DIIS: error= 2.09D-09 at cycle   1 NSaved=   1.
 NSaved= 1 IEnMin= 1 EnMin= -186.561257491635     IErMin= 1 ErrMin= 2.09D-09
 ErrMax= 2.09D-09  0.00D+00 EMaxC= 1.00D-01 BMatC= 1.09D-16 BMatP= 1.09D-16
 IDIUse=1 WtCom= 1.00D+00 WtEn= 0.00D+00
 Coeff-Com:  0.100D+01
 Coeff:      0.100D+01
 Gap=     0.732 Goal=   None    Shift=    0.000
 RMSDP=7.21D-10 MaxDP=6.06D-09              OVMax= 2.13D-09

 SCF Done:  E(RHF) =  -186.561257492     A.U. after    1 cycles
            NFock=  1  Conv=0.72D-09     -V/T= 2.0029
 KE= 1.860140863013D+02 PE=-5.571988122959D+02 EE= 1.260193129416D+02
 Leave Link  502 at Wed Sep 11 13:57:54 2024, MaxMem=   104857600 cpu:               0.1 elap:               0.1
 (Enter /usr/local/g16/l801.exe)
 Range of M.O.s used for correlation:     1    27
 NBasis=    27 NAE=    11 NBE=    11 NFC=     0 NFV=     0
 NROrb=     27 NOA=    11 NOB=    11 NVA=    16 NVB=    16
 Leave Link  801 at Wed Sep 11 13:57:54 2024, MaxMem=   104857600 cpu:               0.0 elap:               0.0
 (Enter /usr/local/g16/l1002.exe)
 Minotr:  Closed shell wavefunction.
          Direct CPHF calculation.
          Differentiating once with respect to electric field.
                with respect to dipole field.
          Electric field/nuclear overlap derivatives assumed to be zero.
          Using symmetry in CPHF.
          Requested convergence is 1.0D-08 RMS, and 1.0D-07 maximum.
          Secondary convergence is 1.0D-12 RMS, and 1.0D-12 maximum.
          NewPWx=F KeepS1=T KeepF1=T KeepIn=T MapXYZ=F SortEE=F KeepMc=T.
 Keep R1 ints in memory in symmetry-blocked form, NReq=879281.
 FoFCou: FMM=F IPFlag=           0 FMFlag=           0 FMFlg1=           0
         NFxFlg=           0 DoJE=F BraDBF=F KetDBF=F FulRan=T
         wScrn=  0.000000 ICntrl=       600 IOpCl=  0 I1Cent=           0 NGrid=           0
         NMat0=    1 NMatS0=    378 NMatT0=    0 NMatD0=    1 NMtDS0=    0 NMtDT0=    0
 Petite list used in FoFCou.
          MDV=     104857600 using IRadAn=       1.
          Solving linear equations simultaneously, MaxMat=       0.
          There are     3 degrees of freedom in the 1st order CPHF.  IDoFFX=0 NUNeed=     3.
      3 vectors produced by pass  0 Test12= 5.87D-15 3.33D-08 XBig12= 7.60D+00 1.82D+00.
 AX will form     3 AO Fock derivatives at one time.
      3 vectors produced by pass  1 Test12= 5.87D-15 3.33D-08 XBig12= 7.18D-01 3.58D-01.
      3 vectors produced by pass  2 Test12= 5.87D-15 3.33D-08 XBig12= 1.69D-02 7.92D-02.
      3 vectors produced by pass  3 Test12= 5.87D-15 3.33D-08 XBig12= 2.54D-04 1.09D-02.
      3 vectors produced by pass  4 Test12= 5.87D-15 3.33D-08 XBig12= 2.14D-06 6.74D-04.
      3 vectors produced by pass  5 Test12= 5.87D-15 3.33D-08 XBig12= 7.18D-09 2.60D-05.
      3 vectors produced by pass  6 Test12= 5.87D-15 3.33D-08 XBig12= 4.26D-11 2.92D-06.
      1 vectors produced by pass  7 Test12= 5.87D-15 3.33D-08 XBig12= 1.18D-13 1.26D-07.
 InvSVY:  IOpt=1 It=  1 EMax= 1.11D-16
 Solved reduced A of dimension    22 with     3 vectors.
 End of Minotr F.D. properties file   721 does not exist.
 End of Minotr F.D. properties file   722 does not exist.
 End of Minotr F.D. properties file   788 does not exist.
 Leave Link 1002 at Wed Sep 11 13:57:54 2024, MaxMem=   104857600 cpu:               0.1 elap:               0.1
 (Enter /usr/local/g16/l1101.exe)
 Using compressed storage, NAtomX=     3.
 Will process      4 centers per pass.
 Leave Link 1101 at Wed Sep 11 13:57:54 2024, MaxMem=   104857600 cpu:               0.0 elap:               0.0
 (Enter /usr/local/g16/l1102.exe)
 Symmetrizing basis deriv contribution to polar:
 IMax=3 JMax=2 DiffMx= 0.00D+00
 Leave Link 1102 at Wed Sep 11 13:57:55 2024, MaxMem=   104857600 cpu:               0.0 elap:               0.0
 (Enter /usr/local/g16/l1110.exe)
 Forming Gx(P) for the SCF density, NAtomX=     3.
 Integral derivatives from FoFJK, PRISM(SPDF).
 Do as many integral derivatives as possible in FoFJK.
 G2DrvN: MDV=     104857260.
 G2DrvN: will do     4 centers at a time, making    1 passes.
 PxScal for G2LodP:  IOpCl= 0 ISclPx=1 IMOff=     1 NMtTot=     4 NTT=     378 ScalPx= 1.00D+00
 Calling FoFCou, ICntrl=  3107 FMM=F I1Cent=   0 AccDes= 0.00D+00.
 FoFJK:  IHMeth= 1 ICntrl=    3107 DoSepK=F KAlg= 0 I1Cent=           0 FoldK=F
 IRaf=         0 NMat=       1 IRICut=       1 DoRegI=T DoRafI=F ISym2E= 1 IDoP0=0 IntGTp=1.
 FoFCou: FMM=F IPFlag=           0 FMFlag=      100000 FMFlg1=           0
         NFxFlg=           0 DoJE=F BraDBF=F KetDBF=F FulRan=T
         wScrn=  0.000000 ICntrl=      3107 IOpCl=  0 I1Cent=           0 NGrid=           0
         NMat0=    1 NMatS0=      1 NMatT0=    0 NMatD0=    4 NMtDS0=    3 NMtDT0=    0
 Petite list used in FoFCou.
 End of G2Drv F.D. properties file   721 does not exist.
 End of G2Drv F.D. properties file   722 does not exist.
 End of G2Drv F.D. properties file   788 does not exist.
 Leave Link 1110 at Wed Sep 11 13:57:55 2024, MaxMem=   104857600 cpu:               0.1 elap:               0.1
 (Enter /usr/local/g16/l1002.exe)
 Minotr:  Closed shell wavefunction.
          IDoAtm=111
          Direct CPHF calculation.
          Differentiating once with respect to electric field.
                with respect to dipole field.
          Differentiating once with respect to nuclear coordinates.
          Using symmetry in CPHF.
          Requested convergence is 1.0D-08 RMS, and 1.0D-07 maximum.
          Secondary convergence is 1.0D-12 RMS, and 1.0D-12 maximum.
          NewPWx=T KeepS1=F KeepF1=F KeepIn=T MapXYZ=F SortEE=F KeepMc=T.
 Keep R1 ints in memory in symmetry-blocked form, NReq=879350.
 FoFCou: FMM=F IPFlag=           0 FMFlag=           0 FMFlg1=           0
         NFxFlg=           0 DoJE=F BraDBF=F KetDBF=F FulRan=T
         wScrn=  0.000000 ICntrl=       600 IOpCl=  0 I1Cent=           0 NGrid=           0
         NMat0=    1 NMatS0=    378 NMatT0=    0 NMatD0=    1 NMtDS0=    0 NMtDT0=    0
 Petite list used in FoFCou.
          MDV=     104857600 using IRadAn=       1.
          Solving linear equations simultaneously, MaxMat=       0.
          There are     9 degrees of freedom in the 1st order CPHF.  IDoFFX=4 NUNeed=     9.
 Will reuse    3 saved solutions.
      6 vectors produced by pass  0 Test12= 1.96D-15 1.11D-08 XBig12= 1.99D-01 2.60D-01.
 AX will form     6 AO Fock derivatives at one time.
      6 vectors produced by pass  1 Test12= 1.96D-15 1.11D-08 XBig12= 9.66D-02 2.04D-01.
      6 vectors produced by pass  2 Test12= 1.96D-15 1.11D-08 XBig12= 5.91D-03 5.10D-02.
      6 vectors produced by pass  3 Test12= 1.96D-15 1.11D-08 XBig12= 7.97D-05 3.90D-03.
      6 vectors produced by pass  4 Test12= 1.96D-15 1.11D-08 XBig12= 2.91D-07 2.91D-04.
      6 vectors produced by pass  5 Test12= 1.96D-15 1.11D-08 XBig12= 1.44D-09 1.62D-05.
      6 vectors produced by pass  6 Test12= 1.96D-15 1.11D-08 XBig12= 7.25D-12 1.09D-06.
      2 vectors produced by pass  7 Test12= 1.96D-15 1.11D-08 XBig12= 3.73D-14 1.01D-07.
 InvSVY:  IOpt=1 It=  1 EMax= 3.33D-16
 Solved reduced A of dimension    44 with     6 vectors.
 FullF1:  Do perturbations      1 to       9.
 Isotropic polarizability for W=    0.000000        9.48 Bohr**3.
 FullF1:  Do perturbations      1 to       6.
 End of Minotr F.D. properties file   721 does not exist.
 End of Minotr F.D. properties file   722 does not exist.
 End of Minotr F.D. properties file   788 does not exist.
 Leave Link 1002 at Wed Sep 11 13:57:55 2024, MaxMem=   104857600 cpu:               0.2 elap:               0.2
 (Enter /usr/local/g16/l601.exe)
 Copying SCF densities to generalized density rwf, IOpCl= 0 IROHF=0.

 **********************************************************************

            Population analysis using the SCF density.

 **********************************************************************

 Orbital symmetries:
       Occupied  (SGU) (SGG) (SGG) (SGG) (SGU) (SGG) (PIU) (PIU)
                 (SGU) (PIG) (PIG)
       Virtual   (PIU) (PIU) (SGG) (SGU) (PIU) (PIU) (SGU) (SGG)
                 (PIG) (PIG) (SGU) (SGG) (PIU) (PIU) (SGG) (SGU)
 The electronic state is 1-SGG.
 Alpha  occ. eigenvalues --  -20.55918 -20.55783 -11.42220  -1.54909  -1.50326
 Alpha  occ. eigenvalues --   -0.77200  -0.72221  -0.72221  -0.72211  -0.52149
 Alpha  occ. eigenvalues --   -0.52149
 Alpha virt. eigenvalues --    0.21101   0.21101   0.29420   0.67026   0.84711
 Alpha virt. eigenvalues --    0.84711   1.21371   1.27677   1.73528   1.73528
 Alpha virt. eigenvalues --    1.82490   1.84842   1.95011   1.95011   3.33189
 Alpha virt. eigenvalues --    3.93674
          Condensed to atoms (all electrons):
               1          2          3
     1  C    3.910975   0.503207   0.503207
     2  O    0.503207   8.061504  -0.023406
     3  O    0.503207  -0.023406   8.061504
 Mulliken charges:
               1
     1  C    1.082610
     2  O   -0.541305
     3  O   -0.541305
 Sum of Mulliken charges =  -0.00000
 Mulliken charges with hydrogens summed into heavy atoms:
               1
     1  C    1.082610
     2  O   -0.541305
     3  O   -0.541305
 APT charges:
               1
     1  C    1.361554
     2  O   -0.680777
     3  O   -0.680777
 Sum of APT charges =  -0.00000
 APT charges with hydrogens summed into heavy atoms:
               1
     1  C    1.361554
     2  O   -0.680777
     3  O   -0.680777
 Electronic spatial extent (au):  <R**2>=            113.6421
 Charge=             -0.0000 electrons
 Dipole moment (field-independent basis, Debye):
    X=             -0.0000    Y=              0.0000    Z=             -0.0000  Tot=              0.0000
 Quadrupole moment (field-independent basis, Debye-Ang):
   XX=            -14.3717   YY=            -14.3717   ZZ=            -21.4456
   XY=              0.0000   XZ=              0.0000   YZ=              0.0000
 Traceless Quadrupole moment (field-independent basis, Debye-Ang):
   XX=              2.3580   YY=              2.3580   ZZ=             -4.7159
   XY=              0.0000   XZ=              0.0000   YZ=              0.0000
 Octapole moment (field-independent basis, Debye-Ang**2):
  XXX=             -0.0000  YYY=              0.0000  ZZZ=              0.0000  XYY=             -0.0000
  XXY=              0.0000  XXZ=             -0.0000  XZZ=             -0.0000  YZZ=             -0.0000
  YYZ=              0.0000  XYZ=             -0.0000
 Hexadecapole moment (field-independent basis, Debye-Ang**3):
 XXXX=             -9.6354 YYYY=             -9.6354 ZZZZ=           -103.2766 XXXY=              0.0000
 XXXZ=              0.0000 YYYX=              0.0000 YYYZ=              0.0000 ZZZX=              0.0000
 ZZZY=              0.0000 XXYY=             -3.2118 XXZZ=            -17.5704 YYZZ=            -17.5704
 XXYZ=              0.0000 YYXZ=              0.0000 ZZXY=             -0.0000
 N-N= 5.860415556131D+01 E-N=-5.571988123101D+02  KE= 1.860140863013D+02
 Symmetry AG   KE= 1.006590895098D+02
 Symmetry B1G  KE= 0.000000000000D+00
 Symmetry B2G  KE= 4.701408869577D+00
 Symmetry B3G  KE= 4.701408869577D+00
 Symmetry AU   KE= 0.000000000000D+00
 Symmetry B1U  KE= 6.886172279796D+01
 Symmetry B2U  KE= 3.545228127198D+00
 Symmetry B3U  KE= 3.545228127198D+00
  Exact polarizability:   4.723   0.000   4.723  -0.000   0.000  18.992
 Approx polarizability:   3.636  -0.000   3.636  -0.000  -0.000  24.513
 No NMR shielding tensors so no spin-rotation constants.
 Leave Link  601 at Wed Sep 11 13:57:55 2024, MaxMem=   104857600 cpu:               0.1 elap:               0.1
 (Enter /usr/local/g16/l701.exe)
 ... and contract with generalized density number  0.
 Compute integral second derivatives.
 Leave Link  701 at Wed Sep 11 13:57:55 2024, MaxMem=   104857600 cpu:               0.1 elap:               0.1
 (Enter /usr/local/g16/l702.exe)
 L702 exits ... SP integral derivatives will be done elsewhere.
 Leave Link  702 at Wed Sep 11 13:57:55 2024, MaxMem=   104857600 cpu:               0.0 elap:               0.0
 (Enter /usr/local/g16/l703.exe)
 Integral derivatives from FoFJK, PRISM(SPDF).
 Compute integral second derivatives, UseDBF=F ICtDFT=           0.
 Calling FoFJK, ICntrl=    100127 FMM=F ISym2X=1 I1Cent= 0 IOpClX= 0 NMat=1 NMatS=1 NMatT=0.
 FoFJK:  IHMeth= 1 ICntrl=  100127 DoSepK=F KAlg= 0 I1Cent=           0 FoldK=F
 IRaf=         0 NMat=       1 IRICut=       1 DoRegI=T DoRafI=F ISym2E= 1 IDoP0=0 IntGTp=1.
 FoFCou: FMM=F IPFlag=           0 FMFlag=      100000 FMFlg1=         800
         NFxFlg=           0 DoJE=F BraDBF=F KetDBF=F FulRan=T
         wScrn=  0.000000 ICntrl=    100127 IOpCl=  0 I1Cent=           0 NGrid=           0
         NMat0=    1 NMatS0=      1 NMatT0=    0 NMatD0=    1 NMtDS0=    0 NMtDT0=    0
 Petite list used in FoFCou.
 Leave Link  703 at Wed Sep 11 13:57:55 2024, MaxMem=   104857600 cpu:               0.1 elap:               0.1
 (Enter /usr/local/g16/l716.exe)
 Dipole        =-1.36979868D-16 2.25137514D-34-5.96385703D-17
 Polarizability= 4.72300567D+00 0.00000000D+00 4.72300567D+00
                -2.08404370D-16 0.00000000D+00 1.89916532D+01
 HyperPolar    =-4.64307743D-15-5.22459772D-16-1.55005240D-15
                -1.56737932D-15 4.47311219D-15 8.82508414D-32
                 2.71166827D-15-3.15789467D-15-1.71451414D-15
                 1.49059211D-15
 Full mass-weighted force constant matrix:
 Low frequencies ---    0.0010    0.0014    0.0014    8.4239    8.4239  659.1516
 Low frequencies ---  659.1516 1427.3818 2463.0121
 Diagonal vibrational polarizability:
        4.0467926       4.0467926       3.2355514
 Diagonal vibrational hyperpolarizability:
       -0.0000000       0.0000000       0.0000000
 Harmonic frequencies (cm**-1), IR intensities (KM/Mole), Raman scattering
 activities (A**4/AMU), depolarization ratios for plane and unpolarized
 incident light, reduced masses (AMU), force constants (mDyne/A),
 and normal coordinates:
                      1                      2                      3
                     PIU                    PIU                    SGG
 Frequencies --    659.1516               659.1516              1427.3818
 Red. masses --     12.8774                12.8774                15.9949
 Frc consts  --      3.2965                 3.2965                19.2005
 IR Inten    --     65.3354                65.3354                 0.0000
 Raman Activ --      0.0000                 0.0000                10.8866
 Depolar (P) --      0.0000                 0.0000                 0.2141
 Depolar (U) --      0.0000                 0.0000                 0.3527
  Atom  AN      X      Y      Z        X      Y      Z        X      Y      Z
     1   6     0.00   0.88  -0.00     0.88  -0.00  -0.00     0.00  -0.00   0.00
     2   8    -0.00  -0.33   0.00    -0.33   0.00   0.00    -0.00   0.00   0.71
     3   8    -0.00  -0.33  -0.00    -0.33   0.00   0.00    -0.00   0.00  -0.71
                      4
                     SGU
 Frequencies --   2463.0121
 Red. masses --     12.8774
 Frc consts  --     46.0268
 IR Inten    --    729.3706
 Raman Activ --      0.0000
 Depolar (P) --      0.0000
 Depolar (U) --      0.0000
  Atom  AN      X      Y      Z
     1   6     0.00   0.00   0.88
     2   8    -0.00  -0.00  -0.33
     3   8    -0.00  -0.00  -0.33

 -------------------
 - Thermochemistry -
 -------------------
 Temperature   298.150 Kelvin.  Pressure   1.00000 Atm.
 Atom     1 has atomic number  6 and mass  12.00000
 Atom     2 has atomic number  8 and mass  15.99491
 Atom     3 has atomic number  8 and mass  15.99491
 Molecular mass:    43.98983 amu.
 Principal axes and moments of inertia in atomic units:
                           1         2         3
     Eigenvalues --     0.00000 152.60720 152.60720
           X           -0.00000   1.00000  -0.00000
           Y            0.00000   0.00000   1.00000
           Z            1.00000   0.00000  -0.00000
 This molecule is a prolate symmetric top.
 Rotational symmetry number  2.
 Rotational temperature (Kelvin)      0.56756
 Rotational constant (GHZ):          11.826055
 Zero-point vibrational energy      31154.9 (Joules/Mol)
                                    7.44621 (Kcal/Mol)
 Vibrational temperatures:    948.37   948.37  2053.68  3543.73
          (Kelvin)
 
 Zero-point correction=                           0.011866 (Hartree/Particle)
 Thermal correction to Energy=                    0.014494
 Thermal correction to Enthalpy=                  0.015438
 Thermal correction to Gibbs Free Energy=        -0.008823
 Sum of electronic and zero-point Energies=           -186.549391
 Sum of electronic and thermal Energies=              -186.546764
 Sum of electronic and thermal Enthalpies=            -186.545819
 Sum of electronic and thermal Free Energies=         -186.570080
 
                     E (Thermal)             CV                S
                      KCal/Mol        Cal/Mol-Kelvin    Cal/Mol-Kelvin
 Total                    9.095              6.885             51.061
 Electronic               0.000              0.000              0.000
 Translational            0.889              2.981             37.270
 Rotational               0.592              1.987             13.058
 Vibrational              7.614              1.917              0.733
                       Q            Log10(Q)             Ln(Q)
 Total Bot       0.114307D+05          4.058074          9.344062
 Total V=0       0.328233D+10          9.516182         21.911818
 Vib (Bot)       0.379490D-05         -5.420800        -12.481853
 Vib (V=0)       0.108970D+01          0.037307          0.085903
 Electronic      0.100000D+01          0.000000          0.000000
 Translational   0.114679D+08          7.059482         16.255059
 Rotational      0.262659D+03          2.419392          5.570856
 
                                                           CO2 Calculation
                                                             IR Spectrum
 
      2                                                    1                                                                         
      4                                                    4                                       6                                 
      6                                                    2                                       5                                 
      3                                                    7                                       9                                 
 
      X                                                                                            X                                 
      X                                                                                            X                                 
      X                                                                                            X                                 
      X                                                                                            X                                 
      X                                                                                                                              
      X                                                                                                                              
      X                                                                                                                              
      X                                                                                                                              
      X                                                                                                                              
      X                                                                                                                              
      X                                                                                                                              
      X                                                                                                                              
      X                                                                                                                              
      X                                                                                                                              
      X                                                                                                                              
      X                                                                                                                              
      X                                                                                                                              
      X                                                                                                                              
      X                                                                                                                              
      X                                                                                                                              
 
 
                                                           CO2 Calculation
                                                            Raman Spectrum
 
      2                                                    1                                                                         
      4                                                    4                                       6                                 
      6                                                    2                                       5                                 
      3                                                    7                                       9                                 
 
                                                           X                                                                         
                                                           X                                                                         
                                                           X                                                                         
                                                           X                                                                         
                                                           X                                                                         
                                                           X                                                                         
                                                           X                                                                         
                                                           X                                                                         
                                                           X                                                                         
                                                           X                                                                         
                                                           X                                                                         
                                                           X                                                                         
                                                           X                                                                         
                                                           X                                                                         
                                                           X                                                                         
                                                           X                                                                         
                                                           X                                                                         
                                                           X                                                                         
                                                           X                                                                         
                                                           X                                                                         
 
 ***** Axes restored to original set *****
 -------------------------------------------------------------------
 Center     Atomic                   Forces (Hartrees/Bohr)
 Number     Number              X              Y              Z
 -------------------------------------------------------------------
      1        6           0.000000000    0.000000000   -0.000000000
      2        8          -0.000093778    0.000000000   -0.000000000
      3        8           0.000093778   -0.000000000    0.000000000
 -------------------------------------------------------------------
 Cartesian Forces:  Max     0.000093778 RMS     0.000044207
 Force constants in Cartesian coordinates: 
                1             2             3             4             5 
      1  0.200339D+01
      2  0.000000D+00  0.143484D+00
      3  0.000000D+00  0.000000D+00  0.143484D+00
      4 -0.100169D+01  0.000000D+00  0.000000D+00  0.111748D+01
      5  0.000000D+00 -0.717419D-01  0.000000D+00  0.000000D+00  0.358924D-01
      6  0.000000D+00  0.000000D+00 -0.717419D-01  0.000000D+00  0.000000D+00
      7 -0.100169D+01  0.000000D+00  0.000000D+00 -0.115781D+00  0.000000D+00
      8  0.000000D+00 -0.717419D-01  0.000000D+00  0.000000D+00  0.358495D-01
      9  0.000000D+00  0.000000D+00 -0.717419D-01  0.000000D+00  0.000000D+00
                6             7             8             9 
      6  0.358924D-01
      7  0.000000D+00  0.111748D+01
      8  0.000000D+00  0.000000D+00  0.358924D-01
      9  0.358495D-01  0.000000D+00  0.000000D+00  0.358924D-01
 FormGI is forming the generalized inverse of G from B-inverse, IUseBI=4.
 Force constants in internal coordinates: 
                1             2             3             4 
      1  0.111748D+01
      2  0.115781D+00  0.111748D+01
      3  0.000000D+00  0.000000D+00  0.171020D+00
      4  0.000000D+00  0.000000D+00  0.000000D+00  0.171020D+00
 Leave Link  716 at Wed Sep 11 13:57:55 2024, MaxMem=   104857600 cpu:               0.0 elap:               0.0
 (Enter /usr/local/g16/l103.exe)

 GradGradGradGradGradGradGradGradGradGradGradGradGradGradGradGradGradGrad
 Berny optimization.
 Red2BG is reusing G-inverse.
 Internal  Forces:  Max     0.000093778 RMS     0.000066311
 Search for a local minimum.
 Step number   1 out of a maximum of    2
 All quantities printed in internal units (Hartrees-Bohrs-Radians)
 Second derivative matrix not updated -- analytic derivatives used.
 The second derivative matrix:
                          R1        R2        A1        A2
           R1           1.11748
           R2           0.11578   1.11748
           A1           0.00000  -0.00000   0.17102
           A2           0.00000  -0.00000   0.00000   0.17102
 ITU=  0
     Eigenvalues ---    0.17102   0.17102   1.00169   1.23326
 Angle between quadratic step and forces=   0.00 degrees.
 Linear search not attempted -- first point.
 Iteration  1 RMS(Cart)=  0.00005377 RMS(Int)=  0.00000000
 Iteration  2 RMS(Cart)=  0.00000000 RMS(Int)=  0.00000001
 ITry= 1 IFail=0 DXMaxC= 7.60D-05 DCOld= 1.00D+10 DXMaxT= 3.00D-01 DXLimC= 3.00D+00 Rises=F
 ClnCor:  largest displacement from symmetrization is 1.96D-14 for atom     1.
 Variable       Old X    -DE/DX   Delta X   Delta X   Delta X     New X
                                 (Linear)    (Quad)   (Total)
    R1        2.18415  -0.00009   0.00000  -0.00008  -0.00008   2.18407
    R2        2.18415  -0.00009   0.00000  -0.00008  -0.00008   2.18407
    A1        3.14159  -0.00000   0.00000  -0.00000   0.00000   3.14159
    A2        3.14159  -0.00000   0.00000  -0.00000   0.00000   3.14159
         Item               Value     Threshold  Converged?
 Maximum Force            0.000094     0.000450     YES
 RMS     Force            0.000066     0.000300     YES
 Maximum Displacement     0.000076     0.001800     YES
 RMS     Displacement     0.000054     0.001200     YES
 Predicted change in Energy=-7.130960D-09
 Optimization completed.
    -- Stationary point found.
                           ----------------------------
                           !   Optimized Parameters   !
                           ! (Angstroms and Degrees)  !
 --------------------------                            --------------------------
 ! Name  Definition              Value          Derivative Info.                !
 --------------------------------------------------------------------------------
 ! R1    R(1,2)                  1.1558         -DE/DX =   -0.0001              !
 ! R2    R(1,3)                  1.1558         -DE/DX =   -0.0001              !
 ! A1    L(2,1,3,-2,-1)        180.0            -DE/DX =    0.0                 !
 ! A2    L(2,1,3,-3,-2)        180.0            -DE/DX =    0.0                 !
 --------------------------------------------------------------------------------
 GradGradGradGradGradGradGradGradGradGradGradGradGradGradGradGradGradGrad

 Leave Link  103 at Wed Sep 11 13:57:55 2024, MaxMem=   104857600 cpu:               0.0 elap:               0.0
 (Enter /usr/local/g16/l9999.exe)
 Dipole is zero, so no output in dipole orientation.

 ----------------------------------------------------------------------

 Electric dipole moment (input orientation):
 (Debye = 10**-18 statcoulomb cm , SI units = C m)
                  (au)            (Debye)         (10**-30 SI)
   Tot        0.000000D+00      0.000000D+00      0.000000D+00
   x          0.000000D+00      0.000000D+00      0.000000D+00
   y          0.000000D+00      0.000000D+00      0.000000D+00
   z          0.000000D+00      0.000000D+00      0.000000D+00

 Dipole polarizability, Alpha (input orientation).
 (esu units = cm**3 , SI units = C**2 m**2 J**-1)
 Alpha(0;0):
               (au)            (10**-24 esu)      (10**-40 SI)
   iso        0.947922D+01      0.140468D+01      0.156291D+01
   aniso      0.142686D+02      0.211440D+01      0.235258D+01
   xx         0.189917D+02      0.281427D+01      0.313130D+01
   yx         0.000000D+00      0.000000D+00      0.000000D+00
   yy         0.472301D+01      0.699877D+00      0.778718D+00
   zx         0.000000D+00      0.000000D+00      0.000000D+00
   zy         0.000000D+00      0.000000D+00      0.000000D+00
   zz         0.472301D+01      0.699877D+00      0.778718D+00

 ----------------------------------------------------------------------
 1\1\GINC-SV1-C724\Freq\RHF\3-21G\C1O2\LME\11-Sep-2024\0\\#P Geom=AllCh
 eck Guess=TCheck SCRF=Check GenChk RHF/3-21G Freq\\CO2 Calculation\\0,
 1\C,0.,0.,1.\O,1.1558,0.,1.\O,-1.1558,0.,1.\\Version=ES64L-G16RevA.03\
 State=1-SGG\HF=-186.5612575\RMSD=7.206e-10\RMSF=4.421e-05\ZeroPoint=0.
 0118663\Thermal=0.0144939\Dipole=0.,0.,0.\DipoleDeriv=2.555165,0.,0.,0
 .,0.7647492,0.,0.,0.,0.7647492,-1.2775825,0.,0.,0.,-0.3823746,0.,0.,0.
 ,-0.3823746,-1.2775825,0.,0.,0.,-0.3823746,0.,0.,0.,-0.3823746\Polar=1
 8.9916532,0.,4.7230057,0.,0.,4.7230057\PolarDeriv=0.,0.,0.,0.,0.,0.,0.
 ,0.,0.,0.,0.,0.,0.,0.,0.,0.,0.,0.,9.196406,0.,1.1177801,0.,0.,1.117780
 1,0.,3.266414,0.,0.,0.,0.,0.,0.,0.,3.266414,0.,0.,-9.196406,0.,-1.1177
 801,0.,0.,-1.1177801,0.,-3.266414,0.,0.,0.,0.,0.,0.,0.,-3.266414,0.,0.
 \HyperPolar=0.,0.,0.,0.,0.,0.,0.,0.,0.,0.\Quadrupole=-3.5061673,1.7530
 837,1.7530837,0.,0.,0.\PG=D*H [O(C1),C*(O1.O1)]\NImag=0\\2.00338967,0.
 ,0.14348382,0.,0.,0.14348382,-1.00169483,0.,0.,1.11747603,0.,-0.071741
 91,0.,0.,0.03589243,0.,0.,-0.07174191,0.,0.,0.03589243,-1.00169483,0.,
 0.,-0.11578120,0.,0.,1.11747603,0.,-0.07174191,0.,0.,0.03584948,0.,0.,
 0.03589243,0.,0.,-0.07174191,0.,0.,0.03584948,0.,0.,0.03589243\\0.,0.,
 0.,0.00009378,0.,0.,-0.00009378,0.,0.\\\@


 NOBODY LOSES ALL THE TIME
 I HAD AN UNCLE NAMED
 SOL WHO WAS A BORN FAILURE AND
 NEARLY EVERYBODY SAID HE SHOULD HAVE GONE
 INTO VAUDEVILLE PERHAPS BECAUSE MY UNCLE SOL COULD
 SING MCCANN HE WAS A DIVER ON XMAS EVE LIKE HELL ITSELF WHICH
 MAY OR MAY NOT ACCOUNT FOR THE FACT THAT MY UNCLE
 SOL INDULGED IN THAT POSSIBLY MOST INEXCUSABLE
 OF ALL TO USE A HIGHFALOOTIN PHRASE
 LUXURIES THAT IS OR TO
 WIT FARMING AND BE
 IT NEEDLESSLY
 ADDED
 MY UNCLE SOL'S FARM     
 FAILED BECAUSE THE CHICKENS
 ATE THE VEGETABLES SO
 MY UNCLE SOL HAD A
 CHICKEN FARM TILL THE
 SKUNKS ATE THE CHICKENS WHEN 
 MY UNCLE SOL
 HAD A SKUNK FARM BUT
 THE SKUNKS CAUGHT COLD AND
 DIED AND SO
 MY UNCLE SOL IMITATED THE
 SKUNKS IN A SUBTLE MANNER
 OR BY DROWNING HIMSELF IN THE WATERTANK
 BUT SOMEBODY WHO'D GIVEN MY UNCLE SOL A VICTOR     
 VICTROLA AND RECORDS WHILE HE LIVED PRESENTED TO
 HIM UPON THE AUSPICIOUS OCCASION OF HIS DECEASE A
 SCRUMPTIOUS NOT TO MENTION SPLENDIFEROUS FUNERAL WITH
 TALL BOYS IN BLACK GLOVES AND FLOWERS AND EVERYTHING AND
 I REMEMBER WE ALL CRIED LIKE THE MISSOURI
 WHEN MY UNCLE SOL'S COFFIN LURCHED BECAUSE     
 SOMEBODY PRESSED A BUTTON
 (AND DOWN WENT
 MY UNCLE
 SOL
 AND STARTED A WORM FARM)
           E. E. CUMMINGS
 Job cpu time:       0 days  0 hours  0 minutes  1.1 seconds.
 Elapsed time:       0 days  0 hours  0 minutes  1.1 seconds.
 File lengths (MBytes):  RWF=      6 Int=      0 D2E=      0 Chk=      1 Scr=      1
 Normal termination of Gaussian 16 at Wed Sep 11 13:57:55 2024.
