[Molden Format]
[Molpro variables]
_NUMVAR=  1094.000000000000    
_AVOGAD= 0.6022140760000000E+24
_BOLTZ= 0.1380649000000000E-22
_CLIGHTSI=  299792458.0000000    
_JOULE= 0.4359744722207100E-17
_JPCAL=  4.184000000000000    
_PLANCK= 0.6626070150000000E-33
_BOHR= 0.5291772109030000E-10
_ECHARG= 0.1602176634000000E-18
_ENULL= 0.8854187812800001E-11
_MU= 0.1660539066600000E-26
_EMASS= 0.9109383701500001E-30
_AMU2AU=  1822.888486217313    
_CLIGHT=  29979245800.00000    
_EV= 0.3674932217565494E-01
_KJOULE= 0.3808798847133432E-03
_KJOULE/MOL= 0.3808798847133432E-03
_CM= 0.4556335252912009E-05
_CM-1= 0.4556335252912009E-05
_DEB2SI= 0.3335640951981520E-29
_KCAL= 0.1593601437640628E-02
_KCAL/MOL= 0.1593601437640628E-02
_KELVIN= 0.3166811563455608E-05
_HERTZ= 0.1519829846057038E-15
_HZ= 0.1519829846057038E-15
_TOA= 0.5291772109030000    
_TOANG= 0.5291772109030000    
_TORAD= 0.1745329251994330E-01
_TOCM=  219474.6313631965    
_TODEBYE=  2.541746473194078    
_TOE= 0.4803204712570263E-09
_TOEV=  27.21138624598803    
_TOHERTZ=  6579683920501656.    
_TOHZ=  6579683920501656.    
_TOK=  315775.0248040668    
_TOKCAL=  627.5094740630558    
_TOKELVIN=  315775.0248040668    
_TOKJ=  2625.499639479825    
_TOKJOULE=  2625.499639479825    
_TOKG= 0.1660539066600000E-26
_ANG=  1.889726124625770    
_ANGSTROM=  1.889726124625770    
_RPAREF=  0.000000000000000    
_RPADISS=  0.000000000000000    
_IGNORE_UNDEF=  2.000000000000000    
_STRICTCHECK=  0.000000000000000    
!SEWARD=  0.000000000000000    
!MULTI=  0.000000000000000    
!DFMULTI=  0.000000000000000    
!NUMHESS=  0.000000000000000    
_SEW_ONEEL=  0.000000000000000    
_CPPDONE=FALSE
_DKROLL_DONE=  0.000000000000000    
_FNUC_DONE=  0.000000000000000    
_FOCKDONE=TRUE
_GRADONE=FALSE
_HESSDONE=TRUE
_INTDONE=TRUE
_SCFDONE=TRUE
_MODUL_BLOCK=FALSE
_MODUL_SLATER=TRUE
_MODUL_MRCC=FALSE
_MODUL_NBO6=FALSE
_MODUL_NECI=FALSE
_MODUL_AIMS=TRUE
_MODUL_HDF5=FALSE
_MODUL_GECCO=FALSE
_ISWINDOWS=FALSE
_MRCC_EXEC=
_FITC_AO_SAVED=FALSE
_FITC_MO_SAVED=FALSE
_LSTYP=SEWARD
_INTYP=INTS
_GEOMTYP=XYZ
_GRADTYP=ALASKA
_DIRECT=FALSE
_DKHO= -1.000000000000000    
_FNUC=  0.000000000000000    
_SYNCM=  0.000000000000000    
_BASIS=6-311G(D,P)
_ZCENTRE=MASS
_ZORIENT=  1.000000000000000    
_NELEC=  26.00000000000000    
!SPIN=  0.000000000000000    
_OPTCONV= 0.1562877674558197E-02
_QSDSTEP=  0.000000000000000    
_QSDIRC=  0.000000000000000    
_PROGRAM=FREQ
_CPUSTEP=  8.629999999999999    
_SYSSTEP= 0.3000000000000000    
_WALLSTEP=  8.930000000000000    
!DFSCF=  0.000000000000000    
!SCSGRD=  0.000000000000000    
_NCEN=  9.000000000000000    
_CPUTOT=  14.90000000000000    
_DFTEXFAC=  1.000000000000000    
_DMX=  0.000000000000000    
_DMY=  0.000000000000000    
_DMZ=-0.5692183059212734    
_DMX_SCF=  0.000000000000000    
_DMY_SCF=  0.000000000000000    
_DMZ_SCF=-0.5692183059212734    
_FREQUENCIES= 0.4669111614062977E-04
_HOMO=  2.300000000000000    
_EHOMO=-0.4189353348861909    
_LUMO=  7.100000000000000    
_ELUMO= 0.1571944788757340    
_ENERGY= -154.1086307482568    
_ENERGY_METHOD=HF
_ENERGY_BASIS=6-311G(D,P)
_GEOMETRY_METHOD=HF
_GEOMETRY_BASIS=6-311G(D,P)
_ENUC=  84.76060757107221    
_GRADENERG= -154.1086305030177    
_GRADEXFAC=  9999.000000000000    
_GRADMETHOD=  1.000000000000000    
_NMRMETHOD=  0.000000000000000    
_NMRMAGNET=  0.000000000000000    
_VIRIAL= 0.1364257797275497E-02
!GRID_FREEZE= -1.000000000000000    
!NEESE_INDEX=  0.000000000000000    
_ITERATIONS=  2.000000000000000    
_LASTNELEC=  26.00000000000000    
_LASTSPIN=  0.000000000000000    
_LASTSYM=  1.000000000000000    
_MPP_PROG=  0.000000000000000    
_MSNSTATES=  0.000000000000000    
_RS2PHASE=  0.000000000000000    
_NPROC_MPP=  1.000000000000000    
_NPROC_SMP=  6.000000000000000    
_NUMSTEP=  0.000000000000000    
_OPTCONVMX= 0.9130399982533553E-03
_OPTCONVRMS= 0.5907122366422755E-03
_OPTGRAD= 0.3955847121372551E-03
_OPTGRADMX= 0.2741694714040638E-03
_OPTGRADRMS= 0.1495169672534645E-03
!GMAXLAST= 0.2741694714040638E-03
!DMAXLAST= 0.9130399982533553E-03
!DELAST= 0.6568469530066068E-05
_OPTSTEP=  4.000000000000000    
_ORBITAL=  2100.200000000000    
_PI=  3.141592653589793    
_SEIG_MIN= 0.6147848223790556E-02
_SEWPROP=TRUE
_STATUS=  1.000000000000000    
_SYSTOT= 0.7000000000000000    
_VERSION=  2024001.000000000    
_WALLTOT=  15.60000000000000    
_ZPE= 0.8489151299559590E-01
_DATE=26-Sep-24
_LASTORB=0
_OUTPUT=/home/lme/Theoretische_Chemie/Nomodeco/metric_comparison/rnad/CH3OCH3.molpro/run/CH3OCH3_1.molpro/CH3OCH3_1.out
_PGROUP=C2v
_TIME=13:22:28
_LIBMOL=/usr/local/molpro/molpro_2024.1.0_sockets/lib/
_VIGRDC=  0.000000000000000    
!VIBCNT=  0.000000000000000    
!SURFREC=  0.000000000000000    
!XSURFREC=  0.000000000000000    
!XPOLYREC=  0.000000000000000    
!ROTREC=  0.000000000000000    
!POLYREC=  0.000000000000000    
!DIPREC=  0.000000000000000    
!DIP4DREC=  0.000000000000000    
!DIPROT=  0.000000000000000    
!DIP4DROT=  0.000000000000000    
!PTREC=  0.000000000000000    
!PT4DREC=  0.000000000000000    
!VSCFREC=  0.000000000000000    
!VCIREC=  0.000000000000000    
!PVCIREC=  0.000000000000000    
!VMP2REC=  0.000000000000000    
!VMCSCFREC=  0.000000000000000    
!VMRCIREC=  0.000000000000000    
!VIBSTATEREC=  0.000000000000000    
!VIBSTATECNT=  0.000000000000000    
!VIBINFO=  0.000000000000000    
!GAREC=  0.000000000000000    
!SCFORB=  21002.00000000000    
!DEFCORE=  2.000000000000000    
!SCORE=  0.000000000000000    
!NEWMOL=  0.000000000000000    
!NEWSYM=  0.000000000000000    
_SLFILES=slscratch
_NGSSTO=  9.000000000000000    
_SIN=SIN
_COS=COS
_TAN=TAN
_ACOS=ACOS
_ASIN=ASIN
_ATAN=ATAN
_COSH=COSH
_SINH=SINH
_TANH=TANH
_ABS=ABS
_MOD=MOD
_ERF=ERF
_REFC=REFC
_ERFC=ERFC
_HYPOT=HYPOT
_J0=J0
_J1=J1
_JN=JN
_GAMMA=GAMMA
_LGAMMA=LGAMMA
_Y0=Y0
_Y1=Y1
_YN=YN
_EXP=EXP
_LOG=LOG
_LOG10=LOG10
_SQRT=SQRT
_INT=INT
_NINT=NINT
_MAX=MAX
_MIN=MIN
_COSMO=  0.000000000000000    
_COSMOIT=  0.000000000000000    
_COSMOES=  0.000000000000000    
_COSMOEDS=  0.000000000000000    
_COSMOEC=  0.000000000000000    
_COSMOEDCORR=  0.000000000000000    
_FEPSI=  1.000000000000000    
_SL_IsMM=  0.000000000000000    
_SL_NSYM=  4.000000000000000    
_SL_System_BitSw=  0.000000000000000    
_SL_Unique_atoms=  0.000000000000000    
_SL_GRAD=  0.000000000000000    
_SL_MAXUPD_Hess=  5.000000000000000    
_SL_N_PRINT_COD=  5.000000000000000    
_SL_PRINT_CODES=  0.000000000000000    
_SL_BasType=  0.000000000000000    
_SL_Energy_Pred=  0.000000000000000    
_SL_New_Coords=  0.000000000000000    
_SL_Total_Nuclea=  0.000000000000000    
_SL_Highest_Mltp=  0.000000000000000    
_SL_Ref_Geom=  0.000000000000000    
_SL_Symmetry_ope=  1.000000000000000    
_SL_agrad=  0.000000000000000    
_SL_GrdMax=  0.000000000000000    
_SL_GrdNorm=  0.000000000000000    
_SL_GrdRMS=  0.000000000000000    
_SL_Hss_Q=  0.000000000000000    
_SL_Hss_X=  0.000000000000000    
_SL_BMxOld=  0.000000000000000    
_SL_KtB=  0.000000000000000    
_SL_TROld=  0.000000000000000    
_SL_No_of_Intern=  0.000000000000000    
_SL_Hess=  0.000000000000000    
_SL_K=  0.000000000000000    
!LATTICE= -1.000000000000000    
!NEWLATTICE=  0.000000000000000    
!LATGRAD_VAR=FALSE
!SEW_LATTICE=  1.000000000000000    
!AIC_ONEEL=  0.000000000000000    
!LOCAL=  0.000000000000000    
!SAVEDOM= -1.000000000000000    
!RESTDOM= -1.000000000000000    
!SAVEDOM_HF= -1.000000000000000    
!RESTDOM_HF= -1.000000000000000    
!HESSREC=  5300.200000000000    
!FREQREC=  5400.200000000000    
!NMODREC=  5450.200000000000    
!GTASKS=  0.000000000000000    
!HTASKS=  0.000000000000000    
!SAVEDOM_EOM= -1.000000000000000    
!RESTDOM_EOM= -1.000000000000000    
!GRADSTATE= -1.000000000000000    
!DEBUG=  0.000000000000000    
!CFIT_CPHF=  0.000000000000000    
!RDOMAUX_CPHF=  0.000000000000000    
!THRAO_CPHF= 0.1000000000000000E-11
!THRMO_CPHF= 0.1000000000000000E-11
!THROV_CPHF= 0.1000000000000000E-13
!THRSW_CPHF= 0.1000000000000000E-11
!THRPROD_CPHF= 0.1000000000000000E-11
!THRAOPR_CPHF= 0.1000000000000000E-11
!CFIT_SCFGRD=  0.000000000000000    
!RDOMAUX_SCFGRD=  0.000000000000000    
!THRAO_SCFGRD= 0.1000000000000000E-11
!THRMO_SCFGRD= 0.1000000000000000E-11
!THROV_SCFGRD= 0.1000000000000000E-13
!THRSW_SCFGRD= 0.1000000000000000E-11
!THRPROD_SCFGRD= 0.1000000000000000E-11
!THRAOPR_SCFGRD= 0.1000000000000000E-11
!LOCFIT_SCF=  0.000000000000000    
!LOCFIT_MP2=  0.000000000000000    
_RIDOM=  0.000000000000000    
!CC2_METHOD=  0.000000000000000    
_BASIS2006=FALSE
_SVDDEL= -1.000000000000000    
_SVDDELA= -1.000000000000000    
_SVDDELP= -1.000000000000000    
_SVDDELF= -1.000000000000000    
_SVDDELS= -1.000000000000000    
_SVDDEL_ABS= -1.000000000000000    
_SVDDELA_ABS= -1.000000000000000    
_SVDDELP_ABS= -1.000000000000000    
_SVDDELF_ABS= -1.000000000000000    
_SVDDELS_ABS= -1.000000000000000    
_MAXBASIS=  0.000000000000000    
!OPT_CONICAL=  0.000000000000000    
!CLEARSP_JGRID=  0.000000000000000    
_GRDHYBR=  0.000000000000000    
_STATEGRAD=  1.000000000000000    
_4EXT_NDISKS=  1.000000000000000    
!EMBEDFLAG=  1.000000000000000    
!EMBED=FALSE
!EMBED_F12=FALSE
!EMBEDNUC=  0.000000000000000    
_EMBEDENERGY=  0.000000000000000    
!EMBED_DFC=FALSE
!NUM_VOIDS=  0.000000000000000    
_IBODY=  0.000000000000000    
_EMBE_CORR=  0.000000000000000    
!EMBED_PROJ=FALSE
!EMB_PROJ_ZMU=  1000000.000000000    
!CORRECTION_HF=  0.000000000000000    
!EMBED_AORB=  0.000000000000000    
!EMBED_NACORR=  0.000000000000000    
!EMBED_MP2=FALSE
!EMBED_TRUNC_PERTURBATION=FALSE
!EMBED_FROZEN=  0.000000000000000    
!EMBED_ACTIVE=  0.000000000000000    
_CHANGE_BASIS=FALSE
_RESTORE_BASIS=FALSE
_FIX_EMBED_GUESS=FALSE
_EMBED_SCF=FALSE
_NEOBAS=FALSE
_NEOOVE=FALSE
_PRINEO=FALSE
_HUZINAGA_T=FALSE
_HUZINAGA_F=FALSE
_HUZINAGA=FALSE
_HUZINAGA_CORRECT=FALSE
!FASTLATGRAD=  1.000000000000000    
!FASTVLAMBDA= -1.000000000000000    
!IFORCE= -1.000000000000000    
!USESYM= -1.000000000000000    
_SINDEX=  0.000000000000000    
_AVDOM_OSV=  0.000000000000000    
_AVDOM_PNO=  0.000000000000000    
_AVDOM_PNOCC=  0.000000000000000    
_AVDOM_TNO=  0.000000000000000    
_AVDOM_TNOIT=  0.000000000000000    
_AVDOM_PAO=  0.000000000000000    
_AVDOM_LMO=  0.000000000000000    
_CC2OSV_FLAG=  0.000000000000000    
_EOMCCSD_CONV=FALSE
_TMADC2_FLAG=FALSE
_PROPADC2_FLAG=FALSE
_LEN_VirQ=  0.000000000000000    
_GRDCC2LR_FLAG=FALSE
_GRDADC2_FLAG=FALSE
_RO_VGLOBAL=  0.000000000000000    
_OPT=FALSE
_FREQ=FALSE
_HESS=FALSE
_CMRCC_callName=EMPTY
_CMRCC_callCount=  0.000000000000000    
_GECCO_CIROOT=  1.000000000000000    
_SYM_CATION=  3.000000000000000    
_MON_A=FALSE
_MON_B=FALSE
_MAXGEOM=  100.0000000000000    
!MAXGEOM=  100.0000000000000    
_NCORE=  0.000000000000000    
_NLARGECORE=  0.000000000000000    
GX1= -1.165611219823281    
GY1=  0.000000000000000    
GZ1=-0.2378863050435862    
GX2=  0.000000000000000    
GY2=  0.000000000000000    
GZ2= 0.5204484627737113    
GX3=  1.165611219823281    
GY3=  0.000000000000000    
GZ3=-0.2378863050435862    
GX4= -2.003770246994126    
GY4=  0.000000000000000    
GZ4= 0.4461470998349086    
GX5= -1.229243315045853    
GY5= 0.8845998200546092    
GZ5=-0.8718109300821140    
GX6= -1.229243315045853    
GY6=-0.8845998200546092    
GZ6=-0.8718109300821140    
GX7=  2.003770246994126    
GY7=  0.000000000000000    
GZ7= 0.4461470998349086    
GX8=  1.229243315045853    
GY8=-0.8845998200546092    
GZ8=-0.8718109300821140    
GX9=  1.229243315045853    
GY9= 0.8845998200546092    
GZ9=-0.8718109300821140    
CX1= -2.202685973256965    
CY1=  0.000000000000000    
CZ1=-0.4495399653315599    
OX2=  0.000000000000000    
OY2=  0.000000000000000    
OZ2= 0.9835050566248048    
CX3=  2.202685973256965    
CY3=  0.000000000000000    
CZ3=-0.4495399653315599    
HX4= -3.786576983492632    
HY4=  0.000000000000000    
HZ4= 0.8430958299840484    
HX5= -2.322933205963734    
HY5=  1.671651389796450    
HZ5= -1.647483890310462    
HX6= -2.322933205963734    
HY6= -1.671651389796450    
HZ6= -1.647483890310462    
HX7=  3.786576983492632    
HY7=  0.000000000000000    
HZ7= 0.8430958299840484    
HX8=  2.322933205963734    
HY8= -1.671651389796450    
HZ8= -1.647483890310462    
HX9=  2.322933205963734    
HY9=  1.671651389796450    
HZ9= -1.647483890310462    
[Atoms] Angs
C     1    6        -1.1656112198        0.0000000000       -0.2378863050
O     2    8         0.0000000000        0.0000000000        0.5204484628
C     3    6         1.1656112198        0.0000000000       -0.2378863050
H     4    1        -2.0037702470        0.0000000000        0.4461470998
H     5    1        -1.2292433150        0.8845998201       -0.8718109301
H     6    1        -1.2292433150       -0.8845998201       -0.8718109301
H     7    1         2.0037702470        0.0000000000        0.4461470998
H     8    1         1.2292433150       -0.8845998201       -0.8718109301
H     9    1         1.2292433150        0.8845998201       -0.8718109301
[GTO]
   1 0
 s    6  1.00
  0.4563240000D+04  0.1966650249D-02
  0.6820240000D+03  0.1523060193D-01
  0.1549730000D+03  0.7612690966D-01
  0.4445530000D+02  0.2608010331D+00
  0.1302900000D+02  0.6164620782D+00
  0.1827730000D+01  0.2210060280D+00
 s    3  1.00
  0.2096420000D+02  0.1146600807D+00
  0.4803310000D+01  0.9199996477D+00
  0.1459330000D+01 -0.3030682134D-02
 s    1  1.00
  0.4834560000D+00  0.1000000000D+01
 s    1  1.00
  0.1455850000D+00  0.1000000000D+01
 p    3  1.00
  0.2096420000D+02  0.4024869267D-01
  0.4803310000D+01  0.2375939567D+00
  0.1459330000D+01  0.8158538515D+00
 p    1  1.00
  0.4834560000D+00  0.1000000000D+01
 p    1  1.00
  0.1455850000D+00  0.1000000000D+01
 d    1  1.00
  0.6260000000D+00  0.1000000000D+01
  
   3 0
 s    6  1.00
  0.4563240000D+04  0.1966650249D-02
  0.6820240000D+03  0.1523060193D-01
  0.1549730000D+03  0.7612690966D-01
  0.4445530000D+02  0.2608010331D+00
  0.1302900000D+02  0.6164620782D+00
  0.1827730000D+01  0.2210060280D+00
 s    3  1.00
  0.2096420000D+02  0.1146600807D+00
  0.4803310000D+01  0.9199996477D+00
  0.1459330000D+01 -0.3030682134D-02
 s    1  1.00
  0.4834560000D+00  0.1000000000D+01
 s    1  1.00
  0.1455850000D+00  0.1000000000D+01
 p    3  1.00
  0.2096420000D+02  0.4024869267D-01
  0.4803310000D+01  0.2375939567D+00
  0.1459330000D+01  0.8158538515D+00
 p    1  1.00
  0.4834560000D+00  0.1000000000D+01
 p    1  1.00
  0.1455850000D+00  0.1000000000D+01
 d    1  1.00
  0.6260000000D+00  0.1000000000D+01
  
   2 0
 s    6  1.00
  0.8588500000D+04  0.1895150083D-02
  0.1297230000D+04  0.1438590063D-01
  0.2992960000D+03  0.7073200310D-01
  0.8737710000D+02  0.2400010105D+00
  0.2567890000D+02  0.5947970261D+00
  0.3740040000D+01  0.2808020123D+00
 s    3  1.00
  0.4211750000D+02  0.1138890124D+00
  0.9628370000D+01  0.9208111006D+00
  0.2853320000D+01 -0.3274470358D-02
 s    1  1.00
  0.9056610000D+00  0.1000000000D+01
 s    1  1.00
  0.2556110000D+00  0.1000000000D+01
 p    3  1.00
  0.4211750000D+02  0.3651139738D-01
  0.9628370000D+01  0.2371529830D+00
  0.2853320000D+01  0.8197019412D+00
 p    1  1.00
  0.9056610000D+00  0.1000000000D+01
 p    1  1.00
  0.2556110000D+00  0.1000000000D+01
 d    1  1.00
  0.1292000000D+01  0.1000000000D+01
  
   4 0
 s    3  1.00
  0.3386500000D+02  0.2549381454D-01
  0.5094790000D+01  0.1903731086D+00
  0.1158790000D+01  0.8521614860D+00
 s    1  1.00
  0.3258400000D+00  0.1000000000D+01
 s    1  1.00
  0.1027410000D+00  0.1000000000D+01
 p    1  1.00
  0.7500000000D+00  0.1000000000D+01
  
   7 0
 s    3  1.00
  0.3386500000D+02  0.2549381454D-01
  0.5094790000D+01  0.1903731086D+00
  0.1158790000D+01  0.8521614860D+00
 s    1  1.00
  0.3258400000D+00  0.1000000000D+01
 s    1  1.00
  0.1027410000D+00  0.1000000000D+01
 p    1  1.00
  0.7500000000D+00  0.1000000000D+01
  
   5 0
 s    3  1.00
  0.3386500000D+02  0.2549381454D-01
  0.5094790000D+01  0.1903731086D+00
  0.1158790000D+01  0.8521614860D+00
 s    1  1.00
  0.3258400000D+00  0.1000000000D+01
 s    1  1.00
  0.1027410000D+00  0.1000000000D+01
 p    1  1.00
  0.7500000000D+00  0.1000000000D+01
  
   6 0
 s    3  1.00
  0.3386500000D+02  0.2549381454D-01
  0.5094790000D+01  0.1903731086D+00
  0.1158790000D+01  0.8521614860D+00
 s    1  1.00
  0.3258400000D+00  0.1000000000D+01
 s    1  1.00
  0.1027410000D+00  0.1000000000D+01
 p    1  1.00
  0.7500000000D+00  0.1000000000D+01
  
   8 0
 s    3  1.00
  0.3386500000D+02  0.2549381454D-01
  0.5094790000D+01  0.1903731086D+00
  0.1158790000D+01  0.8521614860D+00
 s    1  1.00
  0.3258400000D+00  0.1000000000D+01
 s    1  1.00
  0.1027410000D+00  0.1000000000D+01
 p    1  1.00
  0.7500000000D+00  0.1000000000D+01
  
   9 0
 s    3  1.00
  0.3386500000D+02  0.2549381454D-01
  0.5094790000D+01  0.1903731086D+00
  0.1158790000D+01  0.8521614860D+00
 s    1  1.00
  0.3258400000D+00  0.1000000000D+01
 s    1  1.00
  0.1027410000D+00  0.1000000000D+01
 p    1  1.00
  0.7500000000D+00  0.1000000000D+01


[MO]
 Sym=      1.1
 Ene=     -20.5444
 Spin= Alpha
 Occup=    2.000000
1 -0.000002453307643
2 -0.000034168164222
3 0.000108208676607
4 0.000458605489245
5 0.000017087285370
6 0.0
7 0.000034692045886
8 0.000254353517253
9 0.0
10 0.000070162967930
11 0.000093394338236
12 0.0
13 0.000176441922682
14 0.000099400282384
15 -0.000040457685936
16 -0.000058942596448
17 0.0
18 0.000092769144366
19 0.0
20 -0.000002453307643
21 -0.000034168164222
22 0.000108208676607
23 0.000458605489245
24 -0.000017087285370
25 0.0
26 0.000034692045886
27 -0.000254353517253
28 0.0
29 0.000070162967930
30 -0.000093394338236
31 0.0
32 0.000176441922682
33 0.000099400282384
34 -0.000040457685936
35 -0.000058942596448
36 0.0
37 -0.000092769144366
38 0.0
39 0.55144559763848
40 0.47165561234307
41 0.005722461248198
42 -0.001098243442717
43 0.0
44 0.0
45 -0.001745707647217
46 0.0
47 0.0
48 0.000657540394018
49 0.0
50 0.0
51 0.000035710849350
52 -0.000160037991812
53 0.000169417893134
54 -0.000009379901322
55 0.0
56 0.0
57 0.0
58 0.000029854059748
59 -0.000092156866904
60 -0.000042084113135
61 0.000015912561671
62 0.0
63 -0.000014076145703
64 0.000029854059748
65 -0.000092156866904
66 -0.000042084113135
67 -0.000015912561671
68 0.0
69 -0.000014076145703
70 0.000009439616662
71 -0.000068983043760
72 -0.000000112914630
73 -0.000020114914133
74 -0.000010417154565
75 -0.000022146902207
76 0.000009439616662
77 -0.000068983043760
78 -0.000000112914630
79 -0.000020114914133
80 0.000010417154565
81 -0.000022146902207
82 0.000009439616662
83 -0.000068983043760
84 -0.000000112914630
85 0.000020114914133
86 0.000010417154565
87 -0.000022146902207
88 0.000009439616662
89 -0.000068983043760
90 -0.000000112914630
91 0.000020114914133
92 -0.000010417154565
93 -0.000022146902207
 Sym=      1.2
 Ene=     -11.2647
 Spin= Alpha
 Occup=    2.000000
1 0.39840357618533
2 0.32990028972710
3 0.003013524368117
4 -0.001083372459391
5 0.000567953471629
6 0.0
7 0.000314465252708
8 -0.000419962465892
9 0.0
10 -0.000240348560242
11 -0.000076810034511
12 0.0
13 0.000188963487893
14 -0.000097656250661
15 0.000078139640771
16 0.000019516609890
17 0.0
18 -0.000175451460528
19 0.0
20 -0.39840357618533
21 -0.32990028972710
22 -0.003013524368117
23 0.001083372459391
24 0.000567953471629
25 0.0
26 -0.000314465252708
27 -0.000419962465892
28 0.0
29 0.000240348560242
30 -0.000076810034511
31 0.0
32 -0.000188963487893
33 0.000097656250661
34 -0.000078139640771
35 -0.000019516609890
36 0.0
37 -0.000175451460528
38 0.0
39 0.0
40 0.0
41 0.0
42 0.0
43 -0.000132799845003
44 0.0
45 0.0
46 -0.000657602860114
47 0.0
48 0.0
49 -0.000138947147891
50 0.0
51 0.0
52 0.0
53 0.0
54 0.0
55 0.0
56 0.000265039510051
57 0.0
58 0.000249728741278
59 -0.000023581653198
60 0.000121627756200
61 -0.000004506768862
62 0.0
63 0.000036676976752
64 -0.000249728741278
65 0.000023581653198
66 -0.000121627756200
67 -0.000004506768862
68 0.0
69 -0.000036676976752
70 0.000237858294891
71 0.000140435312029
72 0.000235070622665
73 0.000035677355451
74 -0.000002321013352
75 0.000000228058365
76 0.000237858294891
77 0.000140435312029
78 0.000235070622665
79 0.000035677355451
80 0.000002321013352
81 0.000000228058365
82 -0.000237858294891
83 -0.000140435312029
84 -0.000235070622665
85 0.000035677355451
86 -0.000002321013352
87 -0.000000228058365
88 -0.000237858294891
89 -0.000140435312029
90 -0.000235070622665
91 0.000035677355451
92 0.000002321013352
93 -0.000000228058365
 Sym=      2.1
 Ene=     -11.2646
 Spin= Alpha
 Occup=    2.000000
1 0.39840631489663
2 0.32991142469937
3 0.002908419636377
4 -0.000864294365870
5 0.000548432513942
6 0.0
7 0.000302567090957
8 -0.000434700175703
9 0.0
10 -0.000225176282426
11 0.000097169294465
12 0.0
13 -0.000011131174775
14 -0.000083613060838
15 0.000064360617430
16 0.000019252443408
17 0.0
18 -0.000155382316684
19 0.0
20 0.39840631489663
21 0.32991142469937
22 0.002908419636377
23 -0.000864294365870
24 -0.000548432513942
25 0.0
26 0.000302567090957
27 0.000434700175703
28 0.0
29 -0.000225176282426
30 -0.000097169294465
31 0.0
32 -0.000011131174775
33 -0.000083613060838
34 0.000064360617430
35 0.000019252443408
36 0.0
37 0.000155382316684
38 0.0
39 -0.000108753149105
40 -0.000196965603257
41 0.000479797170761
42 0.000498039141869
43 0.0
44 0.0
45 -0.000102383666429
46 0.0
47 0.0
48 -0.000436597899724
49 0.0
50 0.0
51 -0.000102699327737
52 0.000143875869896
53 -0.000144859044420
54 0.000000983174524
55 0.0
56 0.0
57 0.0
58 0.000247358395357
59 0.000058506194608
60 0.000218113678071
61 0.000005949554310
62 0.0
63 0.000029505867783
64 0.000247358395357
65 0.000058506194608
66 0.000218113678071
67 -0.000005949554310
68 0.0
69 0.000029505867783
70 0.000247379934101
71 0.000049635552583
72 0.000156182943344
73 0.000018580063774
74 0.000012807112458
75 0.000010642311637
76 0.000247379934101
77 0.000049635552583
78 0.000156182943344
79 0.000018580063774
80 -0.000012807112458
81 0.000010642311637
82 0.000247379934101
83 0.000049635552583
84 0.000156182943344
85 -0.000018580063774
86 -0.000012807112458
87 0.000010642311637
88 0.000247379934101
89 0.000049635552583
90 0.000156182943344
91 -0.000018580063774
92 0.000012807112458
93 0.000010642311637
 Sym=      3.1
 Ene=      -1.3806
 Spin= Alpha
 Occup=    2.000000
1 -0.036005664705012
2 -0.058708678294498
3 0.14487786679662
4 0.004526696045048
5 0.034837964453174
6 0.0
7 0.019811735756366
8 0.067525178289090
9 0.0
10 0.037699299285218
11 -0.000275702789742
12 0.0
13 -0.005325919536528
14 0.017457422679236
15 -0.014038172639247
16 -0.003419250039989
17 0.0
18 0.019743975125495
19 0.0
20 -0.036005664705012
21 -0.058708678294498
22 0.14487786679662
23 0.004526696045048
24 -0.034837964453174
25 0.0
26 0.019811735756366
27 -0.067525178289090
28 0.0
29 0.037699299285218
30 0.000275702789742
31 0.0
32 -0.005325919536528
33 0.017457422679236
34 -0.014038172639247
35 -0.003419250039989
36 0.0
37 -0.019743975125495
38 0.0
39 -0.10637637253877
40 -0.17767211921931
41 0.50250278378500
42 0.39904181671274
43 0.0
44 0.0
45 -0.033048321336292
46 0.0
47 0.0
48 -0.059803320729635
49 0.0
50 0.0
51 -0.035225153412922
52 0.006317658375977
53 -0.007780162598639
54 0.001462504222662
55 0.0
56 0.0
57 0.0
58 0.013577880762952
59 0.028718333490161
60 0.001639220957915
61 0.006650426893688
62 0.0
63 -0.004211682675445
64 0.013577880762952
65 0.028718333490161
66 0.001639220957915
67 -0.006650426893688
68 0.0
69 -0.004211682675445
70 0.014233448774949
71 0.027211582559779
72 -0.001202260196736
73 0.001028229503500
74 -0.006084549464929
75 0.004934385433178
76 0.014233448774949
77 0.027211582559779
78 -0.001202260196736
79 0.001028229503500
80 0.006084549464929
81 0.004934385433178
82 0.014233448774949
83 0.027211582559779
84 -0.001202260196736
85 -0.001028229503500
86 0.006084549464929
87 0.004934385433178
88 0.014233448774949
89 0.027211582559779
90 -0.001202260196736
91 -0.001028229503500
92 -0.006084549464929
93 0.004934385433178
 Sym=      2.2
 Ene=      -0.9753
 Spin= Alpha
 Occup=    2.000000
1 -0.073236876347065
2 -0.12161848761545
3 0.31680747388764
4 0.16757551282469
5 -0.001008808506618
6 0.0
7 0.011557807762797
8 0.015166015994250
9 0.0
10 0.029145013025096
11 -0.005475567697068
12 0.0
13 -0.004089502437299
14 0.003777971325918
15 -0.006322766155933
16 0.002544794830014
17 0.0
18 0.009338052189801
19 0.0
20 0.073236876347065
21 0.12161848761545
22 -0.31680747388764
23 -0.16757551282469
24 -0.001008808506618
25 0.0
26 -0.011557807762797
27 0.015166015994250
28 0.0
29 -0.029145013025096
30 -0.005475567697068
31 0.0
32 0.004089502437299
33 -0.003777971325918
34 0.006322766155933
35 -0.002544794830014
36 0.0
37 0.009338052189801
38 0.0
39 0.0
40 0.0
41 0.0
42 0.0
43 -0.10310139346607
44 0.0
45 0.0
46 -0.16797263988044
47 0.0
48 0.0
49 -0.086653342249608
50 0.0
51 0.0
52 0.0
53 0.0
54 0.0
55 0.0
56 0.016177492272203
57 0.0
58 0.062228699693657
59 0.087271568276967
60 0.003591674761566
61 0.011175145879654
62 0.0
63 -0.010994502440265
64 -0.062228699693657
65 -0.087271568276967
66 -0.003591674761566
67 0.011175145879654
68 0.0
69 0.010994502440265
70 0.053033561742650
71 0.075937181365645
72 -0.000837152903000
73 0.000344722490305
74 -0.011863972866431
75 0.008967512179022
76 0.053033561742650
77 0.075937181365645
78 -0.000837152903000
79 0.000344722490305
80 0.011863972866431
81 0.008967512179022
82 -0.053033561742650
83 -0.075937181365645
84 0.000837152903000
85 0.000344722490305
86 -0.011863972866431
87 -0.008967512179022
88 -0.053033561742650
89 -0.075937181365645
90 0.000837152903000
91 0.000344722490305
92 0.011863972866431
93 -0.008967512179022
 Sym=      4.1
 Ene=      -0.8720
 Spin= Alpha
 Occup=    2.000000
1 -0.060566540565328
2 -0.10058389710235
3 0.26136668144867
4 0.17491240268251
5 -0.039488794453527
6 0.0
7 -0.038866411606343
8 -0.055226494813865
9 0.0
10 -0.059223530944028
11 -0.020816815337470
12 0.0
13 -0.031115153038360
14 -0.006653876269354
15 0.008140511760358
16 -0.001486635491004
17 0.0
18 -0.013655203613878
19 0.0
20 -0.060566540565328
21 -0.10058389710235
22 0.26136668144867
23 0.17491240268251
24 0.039488794453527
25 0.0
26 -0.038866411606343
27 0.055226494813865
28 0.0
29 -0.059223530944028
30 0.020816815337470
31 0.0
32 -0.031115153038360
33 -0.006653876269354
34 0.008140511760358
35 -0.001486635491004
36 0.0
37 0.013655203613878
38 0.0
39 0.046689841322523
40 0.078764448183557
41 -0.23119295228915
42 -0.24445159224589
43 0.0
44 0.0
45 -0.043837341051383
46 0.0
47 0.0
48 -0.066665012584394
49 0.0
50 0.0
51 -0.049589538287992
52 -0.000324717452161
53 -0.003354108972338
54 0.003678826424499
55 0.0
56 0.0
57 0.0
58 0.056958145415369
59 0.084614895183843
60 0.005960020341267
61 0.008627980659158
62 0.0
63 -0.009510700625391
64 0.056958145415369
65 0.084614895183843
66 0.005960020341267
67 -0.008627980659158
68 0.0
69 -0.009510700625391
70 0.069749968424721
71 0.094835648616188
72 0.008090179859078
73 -0.000951059010078
74 -0.011801582238436
75 0.006827289520453
76 0.069749968424721
77 0.094835648616188
78 0.008090179859078
79 -0.000951059010078
80 0.011801582238436
81 0.006827289520453
82 0.069749968424721
83 0.094835648616188
84 0.008090179859078
85 0.000951059010078
86 0.011801582238436
87 0.006827289520453
88 0.069749968424721
89 0.094835648616188
90 0.008090179859078
91 0.000951059010078
92 -0.011801582238436
93 0.006827289520453
 Sym=      1.3
 Ene=      -0.6623
 Spin= Alpha
 Occup=    2.000000
1 0.0
2 0.0
3 0.0
4 0.0
5 0.0
6 0.11036672320457
7 0.0
8 0.0
9 0.18157312019846
10 0.0
11 0.0
12 0.095509335881704
13 0.0
14 0.0
15 0.0
16 0.0
17 0.015416278476974
18 0.0
19 -0.010373901206740
20 0.0
21 0.0
22 0.0
23 0.0
24 0.0
25 0.11036672320457
26 0.0
27 0.0
28 0.18157312019846
29 0.0
30 0.0
31 0.095509335881704
32 0.0
33 0.0
34 0.0
35 0.0
36 -0.015416278476974
37 0.0
38 -0.010373901206740
39 0.0
40 0.0
41 0.0
42 0.0
43 0.0
44 0.16227069062152
45 0.0
46 0.0
47 0.25710085229653
48 0.0
49 0.0
50 0.20899938814310
51 0.0
52 0.0
53 0.0
54 0.0
55 0.0
56 0.0
57 -0.014867708416185
58 0.0
59 0.0
60 0.0
61 0.0
62 0.006193719956607
63 0.0
64 0.0
65 0.0
66 0.0
67 0.0
68 0.006193719956607
69 0.0
70 0.070618304156309
71 0.10256330449540
72 0.035665492543913
73 -0.000372258819751
74 -0.004388803663269
75 0.005948345837394
76 -0.070618304156309
77 -0.10256330449540
78 -0.035665492543913
79 0.000372258819751
80 -0.004388803663269
81 -0.005948345837394
82 -0.070618304156309
83 -0.10256330449540
84 -0.035665492543913
85 -0.000372258819751
86 -0.004388803663269
87 -0.005948345837394
88 0.070618304156309
89 0.10256330449540
90 0.035665492543913
91 0.000372258819751
92 -0.004388803663269
93 0.005948345837394
 Sym=      5.1
 Ene=      -0.6541
 Spin= Alpha
 Occup=    2.000000
1 0.005495613694380
2 0.009051181818703
3 -0.024049729813883
4 -0.038499651776724
5 0.097438134651320
6 0.0
7 -0.066529076321756
8 0.16348409393594
9 0.0
10 -0.10823498013146
11 0.079706660545446
12 0.0
13 -0.073235921103439
14 0.010880394936177
15 0.003779660097182
16 -0.014660055033359
17 0.0
18 0.014741634038612
19 0.0
20 0.005495613694380
21 0.009051181818703
22 -0.024049729813883
23 -0.038499651776724
24 -0.097438134651320
25 0.0
26 -0.066529076321756
27 -0.16348409393594
28 0.0
29 -0.10823498013146
30 -0.079706660545446
31 0.0
32 -0.073235921103439
33 0.010880394936177
34 0.003779660097182
35 -0.014660055033359
36 0.0
37 -0.014741634038612
38 0.0
39 0.012779936167605
40 0.021802453187995
41 -0.069443451500064
42 -0.081019873627321
43 0.0
44 0.0
45 -0.14837598244515
46 0.0
47 0.0
48 -0.23208284063731
49 0.0
50 0.0
51 -0.18820969517856
52 -0.010386176356353
53 -0.006687834344811
54 0.017074010701164
55 0.0
56 0.0
57 0.0
58 -0.10039647651133
59 -0.13729838284862
60 -0.041711418516212
61 -0.005974593249929
62 0.0
63 0.008276389003666
64 -0.10039647651133
65 -0.13729838284862
66 -0.041711418516212
67 0.005974593249929
68 0.0
69 0.008276389003666
70 0.020294052199205
71 0.029027620127965
72 0.006908635514645
73 0.003512670574775
74 -0.003301780545672
75 -0.001633506310817
76 0.020294052199205
77 0.029027620127965
78 0.006908635514645
79 0.003512670574775
80 0.003301780545672