
 Working directory              : /tmp/lme/molpro.ukDzsMlibB/
 Global scratch directory       : /tmp/lme/molpro.ukDzsMlibB/
 Wavefunction directory         : /home/lme/wfu/
 Main file repository           : /tmp/lme/molpro.ukDzsMlibB/

 id        : liedlgroup

 Nodes     nprocs
 sv1-c724     1
 GA implementation: MPI file
 GA implementation (serial work in mppx): MPI file

 Using customized tuning parameters: mindgm=1; mindgv=20; mindgc=4; mindgr=1; noblas=0; minvec=7
 default implementation of scratch files=df  


 Variables initialized (1042), CPU time= 0.00 sec
 
            orient,mass
            geometry=initial.xyz
 Including file /home/lme/Theoretische_Chemie/Nomodeco/metric_comparison/rnad/CH3OCH3.molpro/run/CH3OCH3_1.molpro/initial.xyz
            mass, iso
            basis=6-311g(d,p)
            {hf
            start, atden}
            optg;
            {frequencies, symm=auto, print=0, analytical}
            put, molden, CH3OCH3.molden
 Commands initialized (847), CPU time= 0.01 sec, 718 directives.
 Default parameters read. Elapsed time= 0.06 sec

 Checking input...
 Passed
1


                                         ***  PROGRAM SYSTEM MOLPRO  ***
                                       Copyright, TTI GmbH Stuttgart, 2015
                                    Version 2024.1 linked Wed Jan 31 11:42:09 2024


 **********************************************************************************************************************************
 LABEL *                                                                                                                                                                 
  (6 PROC) 64 bit serial version                                                         DATE: 26-Sep-24          TIME: 13:22:28  
 **********************************************************************************************************************************

 SHA1:             675817fde4514a4a933b69e420913a90cee4ef91
 **********************************************************************************************************************************

 Memory per process:        32 MW
 Total memory per node:     32 MW

 GA preallocation disabled
 GA check disabled

 Variable memory set to 32.0 MW

 ZCENTRE=MASS


 Geometry recognized as XYZ



 Using masses of most abundant isotopes

 **********************************************************************************************************************************
 SETTING BASIS          =    6-311G(D,P)


 Recomputing integrals since basis changed


 Using spherical harmonics

 Library entry C      S 6-311G               selected for orbital group  1
 Library entry C      P 6-311G               selected for orbital group  1
 Library entry C      D 6-311G*              selected for orbital group  1
 Library entry O      S 6-311G               selected for orbital group  2
 Library entry O      P 6-311G               selected for orbital group  2
 Library entry O      D 6-311G*              selected for orbital group  2
 Library entry H      S 6-311G               selected for orbital group  3
 Library entry H      P 6-311G**             selected for orbital group  3


 PROGRAM * SEWARD (Integral evaluation for generally contracted gaussian basis sets)     Author: Roland Lindh, 1990

 Geometry written to block  1 of record 700

 Orientation using atomic masses  
 Molecule type: Asymmetric top,     Order of principal axis = 2
 Symmetry elements: X,Y
 Rotational constants:      38.5335064      8.9172662     10.1134642 GHz

 Point group  C2v 



 ATOMIC COORDINATES

 NR  ATOM    CHARGE       X              Y              Z

   1  C       6.00   -2.202900987    0.000000000   -0.475519191
   2  C       6.00    2.202900987    0.000000000   -0.475519191
   3  O       8.00    0.000000000    0.000000000    1.036375092
   4  H       1.00   -3.813030793    0.000000000    0.809783702
   5  H       1.00    3.813030793    0.000000000    0.809783702
   6  H       1.00   -2.294732228    1.685227522   -1.685934128
   7  H       1.00   -2.294732228   -1.685227522   -1.685934128
   8  H       1.00    2.294732228   -1.685227522   -1.685934128
   9  H       1.00    2.294732228    1.685227522   -1.685934128

 Bond lengths in Bohr (Angstrom)

 1-3  2.671815316  1-4  2.060223658  1-6  2.076903728  1-7  2.076903728  2-3  2.671815316
     ( 1.413863777)     ( 1.090223409)     ( 1.099050122)     ( 1.099050122)     ( 1.413863777)

 2-5  2.060223658  2-8  2.076903728  2-9  2.076903728
     ( 1.090223409)     ( 1.099050122)     ( 1.099050122)

 Bond angles

  1-3-2  111.07484929   3-1-4  106.93844279   3-1-6  111.48403644   3-1-7  111.48403644

  3-2-5  106.93844279   3-2-8  111.48403644   3-2-9  111.48403644   4-1-6  109.21001986

  4-1-7  109.21001986   5-2-8  109.21001986   5-2-9  109.21001986   6-1-7  108.46851096

  8-2-9  108.46851096

 NUCLEAR CHARGE:                   26
 NUMBER OF PRIMITIVE AOS:         144
 NUMBER OF SYMMETRY AOS:          141
 NUMBER OF CONTRACTIONS:           90   (   33A1  +   28B1  +   16B2  +   13A2  )
 NUMBER OF INNER CORE ORBITALS:     0   (    0A1  +    0B1  +    0B2  +    0A2  )
 NUMBER OF OUTER CORE ORBITALS:     3   (    2A1  +    1B1  +    0B2  +    0A2  )
 NUMBER OF VALENCE ORBITALS:       18   (    7A1  +    6B1  +    3B2  +    2A2  )


 NUCLEAR REPULSION ENERGY   83.87537015

 Eigenvalues of metric

         1 0.103E-01 0.234E-01 0.268E-01 0.514E-01 0.592E-01 0.943E-01 0.107E+00 0.115E+00
         2 0.642E-02 0.177E-01 0.274E-01 0.385E-01 0.463E-01 0.890E-01 0.103E+00 0.117E+00
         3 0.236E-01 0.442E-01 0.116E+00 0.190E+00 0.334E+00 0.371E+00 0.492E+00 0.703E+00
         4 0.230E-01 0.406E-01 0.106E+00 0.337E+00 0.375E+00 0.471E+00 0.719E+00 0.925E+00


 Contracted 2-electron integrals neglected if value below      1.0D-11
 AO integral compression algorithm  1   Integral accuracy      1.0D-11

     13.369 MB (compressed) written to integral file ( 55.2%)


 NUMBER OF SORTED TWO-ELECTRON INTEGRALS:    2209293.     BUFFER LENGTH:  32768
 NUMBER OF SEGMENTS:   1  SEGMENT LENGTH:    2209293      RECORD LENGTH: 524288

 Memory used in sort:       2.77 MW

 SORT1 READ     2990735. AND WROTE     2170625. INTEGRALS IN      7 RECORDS. CPU TIME:     0.04 SEC, REAL TIME:     0.06 SEC
 SORT2 READ     2170625. AND WROTE     2209293. INTEGRALS IN     51 RECORDS. CPU TIME:     0.07 SEC, REAL TIME:     0.08 SEC

 FILE SIZES:   FILE 1:    43.7 MBYTE,  FILE 4:    29.4 MBYTE,   TOTAL:     73.1 MBYTE

 OPERATOR DM      FOR CENTER  0  COORDINATES:    0.000000    0.000000    0.000000


 **********************************************************************************************************************************
 DATASETS  * FILE   NREC   LENGTH (MB)   RECORD NAMES
              1      19       38.28       500      610      700      900      950      970     1000      129      960     1100   
                                          VAR    BASINP    GEOM    SYMINP    ZMAT    AOBASIS   BASIS     P2S    ABASIS      S 
                                         1400     1410     1200     1210     1080     1600     1650     1300     1700   
                                           T        V       H0       H01     AOSYM     SMH    MOLCAS    ERIS     OPER   

 PROGRAMS   *        TOTAL       INT
 CPU TIMES  *         0.64      0.53
 REAL TIME  *         0.71 SEC
 DISK USED  *        70.20 MB
 **********************************************************************************************************************************


 Program * Restricted Hartree-Fock

 Orbital guess generated from atomic densities.

 Initial occupancy:   6   4   2   1

 NELEC=   26   SYM=1   MS2= 0   THRE=1.0D-08   THRD=1.0D-06   THRG=1.0D-06  HFMA2=F  DIIS_START=2   DIIS_MAX=10   DIIS_INCORE=F

 Level shifts:    0.00 (CLOSED)    0.00 (OPEN)    0.30 (GAP_MIN)

 ITER           ETOT              DE          GRAD        DDIFF     DIIS  NEXP   TIME(IT)  TIME(TOT)  DIAG
   1     -154.07150220    -154.07150220     0.00D+00     0.80D-01     0     0       0.01      0.03    start
   2     -154.10201053      -0.03050833     0.10D-01     0.71D-02     1     0       0.01      0.04    diag
   3     -154.10649354      -0.00448302     0.44D-02     0.25D-02     2     0       0.01      0.05    diag
   4     -154.10725240      -0.00075885     0.16D-02     0.11D-02     3     0       0.00      0.05    diag
   5     -154.10727835      -0.00002595     0.21D-03     0.29D-03     4     0       0.01      0.06    diag
   6     -154.10727920      -0.00000085     0.41D-04     0.54D-04     5     0       0.01      0.07    diag
   7     -154.10727924      -0.00000005     0.11D-04     0.12D-04     6     0       0.01      0.08    diag
   8     -154.10727925      -0.00000000     0.22D-05     0.25D-05     7     0       0.00      0.08    fixocc
   9     -154.10727925      -0.00000000     0.52D-06     0.72D-06     8     0       0.01      0.09    diag
  10     -154.10727925      -0.00000000     0.98D-07     0.11D-06     0     0       0.01      0.10    diag/orth

 Final occupancy:   6   4   2   1

 !RHF STATE 1.1 Energy               -154.107279247781
  RHF One-electron energy            -375.555687504134
  RHF Two-electron energy             137.573038105750
  RHF Kinetic energy                  153.960057354049
  RHF Nuclear energy                   83.875370150603
  RHF Virial quotient                  -1.000956234339

 !RHF STATE 1.1 Dipole moment           0.00000000     0.00000000    -0.61796330
 Dipole moment /Debye                   0.00000000     0.00000000    -1.57070603

 Orbital energies:

           1.1          2.1          3.1          4.1          5.1          6.1          7.1          8.1
    -20.547486   -11.269066    -1.367951    -0.873205    -0.646899    -0.480302     0.156133     0.216143

           1.2          2.2          3.2          4.2          5.2          6.2
    -11.269087    -0.965662    -0.635773    -0.523414     0.192216     0.249714

           1.3          2.3          3.3          4.3
     -0.655490    -0.422027     0.214223     0.499060

           1.4          2.4          3.4
     -0.548442     0.264640     0.449322


 HOMO      2.3    -0.422027 =     -11.4840eV
 LUMO      7.1     0.156133 =       4.2486eV
 LUMO-HOMO         0.578160 =      15.7325eV

 Orbitals saved in record  2100.2


 **********************************************************************************************************************************
 DATASETS  * FILE   NREC   LENGTH (MB)   RECORD NAMES
              1      19       38.28       500      610      700      900      950      970     1000      129      960     1100   
                                          VAR    BASINP    GEOM    SYMINP    ZMAT    AOBASIS   BASIS     P2S    ABASIS      S 
                                         1400     1410     1200     1210     1080     1600     1650     1300     1700   
                                           T        V       H0       H01     AOSYM     SMH    MOLCAS    ERIS     OPER   

              2       4        0.56       700     1000      520     2100   
                                         GEOM     BASIS   MCVARS     RHF  

 PROGRAMS   *        TOTAL    HF-SCF       INT
 CPU TIMES  *         0.74      0.10      0.53
 REAL TIME  *         0.82 SEC
 DISK USED  *        70.20 MB
 **********************************************************************************************************************************


 PROGRAM * OPT (Geometry optimization)     Authors: F. Eckert and H.-J. Werner


 BFGS update of hessian

 *** Long output written to logfile /home/lme/Theoretische_Chemie/Nomodeco/metric_comparison/rnad/CH3OCH3.molpro/run/CH3OCH3_1.molpro/CH3OCH3_1.log ***


 Geometry optimization using default procedure for command HF-SCF

 Geometry written to block  1 of record 700

 PQS Optimization using delocalized internal coordinates

 Point group c2v. Number of degrees of freedom:    7

 ITER.   ENERGY(OLD)    ENERGY(NEW)      DE          GRADMAX     GRADNORM    GRADRMS     STEPMAX     STEPLEN     STEPRMS   CPU-time
   1  -154.10727925  -154.10855886    -0.00127961  0.02387006  0.02997722  0.01133032  0.07641452  0.08832792  0.03338482      1.27
   2  -154.10855886  -154.10862393    -0.00006507  0.00457728  0.00586223  0.00221571  0.01844981  0.02692171  0.01017545      2.53
   3  -154.10862393  -154.10863050    -0.00000657  0.00107287  0.00189338  0.00071563  0.00547681  0.00899284  0.00339897      3.80
   4  -154.10863050  -154.10863075    -0.00000025  0.00027417  0.00039558  0.00014952  0.00091304  0.00156288  0.00059071      5.06

 END OF GEOMETRY OPTIMIZATION.

 Geometry written to block  1 of record 700

 Recomputing wavefunction for reoriented structure

 Current geometry (xyz format, in Angstrom)

    9
 HF-SCF000/6-311G(D,P)  ENERGY=-154.10863075
 C         -1.1656112198        0.0000000000       -0.2378863050
 O          0.0000000000        0.0000000000        0.5204484628
 C          1.1656112198        0.0000000000       -0.2378863050
 H         -2.0037702470        0.0000000000        0.4461470998
 H         -1.2292433150        0.8845998201       -0.8718109301
 H         -1.2292433150       -0.8845998201       -0.8718109301
 H          2.0037702470        0.0000000000        0.4461470998
 H          1.2292433150       -0.8845998201       -0.8718109301
 H          1.2292433150        0.8845998201       -0.8718109301

 **********************************************************************************************************************************


 **********************************************************************************************************************************
 DATASETS  * FILE   NREC   LENGTH (MB)   RECORD NAMES
              1      19       38.30       500      610      700      900      950      970     1000      129      960     1100   
                                          VAR    BASINP    GEOM    SYMINP    ZMAT    AOBASIS   BASIS     P2S    ABASIS      S 
                                         1400     1410     1200     1210     1080     1600     1650     1300     1700   
                                           T        V       H0       H01     AOSYM     SMH    MOLCAS    ERIS     OPER   

              2       4        0.56       700     1000      520     2100   
                                         GEOM     BASIS   MCVARS     RHF  

 PROGRAMS   *        TOTAL      OPTG    HF-SCF       INT
 CPU TIMES  *         6.27      5.53      0.10      0.53
 REAL TIME  *         6.67 SEC
 DISK USED  *        70.67 MB
 **********************************************************************************************************************************


 PROGRAM * HESSIAN

 PROGRAM * MCKINLEY (Hessian of the energy)     Author: A. Bernhardsson, R. Lindh

 Orbitals from record         2100.2

 Number of closed-shell orbitals: 13 (  6  4  2  1 )
 Number of occupied orbitals:     13 (  6  4  2  1 )

 Number of electrons= 26     Singlet     Space symmetry=1      Wavefunction type: CLOSED          


 McKinley needed      6.77 seconds of CPU time

 Entering CPHF calculation

 CPHF needed 191 iterations for 27 perturbations.  Total CPU time:    1.85 sec


 HF-SCF hessian saved to record  5300.2

 PROGRAM * FREQUENCIES (Calculation of harmonic vibrational spectra for HF-SCF)


 Permanent Dipole Moment [debye]
     1-   3    0.000000    0.000000    0.000000

 Dipole Moment Norm    0.0000000 [debye]

 Dipole Moment Derivatives [debye/ang]
              1             2             3             4             5             6             7             8
    1    0.00000000    0.00000000    0.00000000    0.00000000    0.00000000    0.00000000    0.00000000    0.00000000
    2    0.00000000    0.00000000    0.00000000    0.00000000    0.00000000    0.00000000    0.00000000    0.00000000
    3    0.00000000    0.00000000    0.00000000    0.00000000    0.00000000    0.00000000    0.00000000    0.00000000
              9            10            11            12            13            14            15            16
    1    0.00000000    0.00000000    0.00000000    0.00000000    0.00000000    0.00000000    0.00000000    0.00000000
    2    0.00000000    0.00000000    0.00000000    0.00000000    0.00000000    0.00000000    0.00000000    0.00000000
    3    0.00000000    0.00000000    0.00000000    0.00000000    0.00000000    0.00000000    0.00000000    0.00000000
             17            18            19            20            21            22            23            24
    1    0.00000000    0.00000000    0.00000000    0.00000000    0.00000000    0.00000000    0.00000000    0.00000000
    2    0.00000000    0.00000000    0.00000000    0.00000000    0.00000000    0.00000000    0.00000000    0.00000000
    3    0.00000000    0.00000000    0.00000000    0.00000000    0.00000000    0.00000000    0.00000000    0.00000000
             25            26            27
    1    0.00000000    0.00000000    0.00000000
    2    0.00000000    0.00000000    0.00000000
    3    0.00000000    0.00000000    0.00000000

 Projecting out rotations and translations

 Force Constants (Second Derivatives of the Energy) in [a.u.]
                             CX1         CY1         CZ1         OX2         OY2     
           CX1           0.6211562
           CY1           0.0000000   0.6203451
           CZ1          -0.0632842  -0.0000000   0.6352548
           OX2          -0.2355029  -0.0000000  -0.1144473   0.6136895
           OY2           0.0000000  -0.0757891  -0.0000000  -0.0000000   0.1142176
           OZ2          -0.0669485  -0.0000000  -0.1794197  -0.0000000   0.0000000
           CX3          -0.0552272  -0.0000000   0.0166194  -0.2355029   0.0000000
           CY3          -0.0000000  -0.0020154   0.0000000  -0.0000000  -0.0757891
           CZ3          -0.0166194  -0.0000000   0.0185010   0.1144473   0.0000000
           HX4          -0.2150487  -0.0000000   0.1359021  -0.0391294  -0.0000000
           HY4          -0.0000000  -0.0611082  -0.0000000  -0.0000000   0.0010310
           HZ4           0.1520496  -0.0000000  -0.1884786  -0.0261993  -0.0000000
           HX5          -0.0625629  -0.0012272   0.0046514  -0.0161063   0.0298480
           HY5           0.0034341  -0.2413067   0.1201537   0.0066886   0.0088246
           HZ5          -0.0000558   0.1174024  -0.1411093  -0.0164520   0.0185533
           HX6          -0.0625629   0.0012272   0.0046514  -0.0161063  -0.0298480
           HY6          -0.0034341  -0.2413067  -0.1201537  -0.0066886   0.0088246
           HZ6          -0.0000558  -0.1174024  -0.1411093  -0.0164520  -0.0185533
           HX7          -0.0012877  -0.0000000   0.0071259  -0.0391294  -0.0000000
           HY7           0.0000000   0.0002219  -0.0000000   0.0000000   0.0010310
           HZ7           0.0027723   0.0000000  -0.0021077   0.0261993   0.0000000
           HX8           0.0055180   0.0033571   0.0043906  -0.0161063   0.0298480
           HY8          -0.0018645   0.0004796  -0.0002336   0.0066886   0.0088246
           HZ8          -0.0039291   0.0008464  -0.0007656   0.0164520  -0.0185533
           HX9           0.0055180  -0.0033571   0.0043906  -0.0161063  -0.0298480
           HY9           0.0018645   0.0004796   0.0002336  -0.0066886   0.0088246
           HZ9          -0.0039291  -0.0008464  -0.0007656   0.0164520   0.0185533
                             OZ2         CX3         CY3         CZ3         HX4     
           OZ2           0.3964628
           CX3           0.0669485   0.6211562
           CY3           0.0000000   0.0000000   0.6203451
           CZ3          -0.1794197   0.0632842   0.0000000   0.6352548
           HX4           0.0192688  -0.0012877   0.0000000  -0.0071259   0.2503297
           HY4          -0.0000000  -0.0000000   0.0002219  -0.0000000  -0.0000000
           HZ4           0.0189448  -0.0027723   0.0000000  -0.0021077  -0.1496927
           HX5          -0.0305619   0.0055180   0.0033571  -0.0043906   0.0035356
           HY5           0.0021917  -0.0018645   0.0004796   0.0002336  -0.0011992
           HZ5          -0.0188783   0.0039291  -0.0008464  -0.0007656   0.0000468
           HX6          -0.0305619   0.0055180  -0.0033571  -0.0043906   0.0035356
           HY6          -0.0021917   0.0018645   0.0004796  -0.0002336   0.0011992
           HZ6          -0.0188783   0.0039291   0.0008464  -0.0007656   0.0000468
           HX7          -0.0192688  -0.2150487  -0.0000000  -0.1359021  -0.0019073
           HY7          -0.0000000   0.0000000  -0.0611082   0.0000000   0.0000000
           HZ7           0.0189448  -0.1520496   0.0000000  -0.1884786   0.0009825
           HX8           0.0305619  -0.0625629  -0.0012272  -0.0046514  -0.0000139
           HY8          -0.0021917   0.0034341  -0.2413067  -0.1201537   0.0003225
           HZ8          -0.0188783   0.0000558  -0.1174024  -0.1411093   0.0002859
           HX9           0.0305619  -0.0625629   0.0012272  -0.0046514  -0.0000139
           HY9           0.0021917  -0.0034341  -0.2413067   0.1201537  -0.0003225
           HZ9          -0.0188783   0.0000558   0.1174024  -0.1411093   0.0002859
                             HY4         HZ4         HX5         HY5         HZ5     
           HY4           0.0546802
           HZ4          -0.0000000   0.1935749
           HX5          -0.0236340   0.0140888   0.0672406
           HY5           0.0020035  -0.0009557  -0.0075864   0.2547431
           HZ5           0.0204143  -0.0115213   0.0133057  -0.1377543   0.1562498
           HX6           0.0236340   0.0140888   0.0024755  -0.0010042   0.0010642
           HY6           0.0020035   0.0009557   0.0010042  -0.0247732  -0.0170267
           HZ6          -0.0204143  -0.0115213   0.0010642   0.0170267   0.0143314
           HX7          -0.0000000  -0.0009825  -0.0000139   0.0003225  -0.0002859
           HY7           0.0005335  -0.0000000  -0.0003716   0.0003173  -0.0002880
           HZ7           0.0000000   0.0006788   0.0002903  -0.0003689   0.0002153
           HX8          -0.0003716  -0.0002903  -0.0006353  -0.0000904  -0.0005278
           HY8           0.0003173   0.0003689  -0.0000904  -0.0004405   0.0000360
           HZ8           0.0002880   0.0002153   0.0005278  -0.0000360   0.0003415
           HX9           0.0003716  -0.0002903   0.0005487   0.0012996  -0.0010242
           HY9           0.0003173  -0.0003689  -0.0012996   0.0001525  -0.0004907
           HZ9          -0.0002880   0.0002153   0.0010242  -0.0004907   0.0011366
                             HX6         HY6         HZ6         HX7         HY7     
           HX6           0.0672406
           HY6           0.0075864   0.2547431
           HZ6           0.0133057   0.1377543   0.1562498
           HX7          -0.0000139  -0.0003225  -0.0002859   0.2503297
           HY7           0.0003716   0.0003173   0.0002880   0.0000000   0.0546802
           HZ7           0.0002903   0.0003689   0.0002153   0.1496927  -0.0000000
           HX8           0.0005487  -0.0012996  -0.0010242   0.0035356  -0.0236340
           HY8           0.0012996   0.0001525   0.0004907  -0.0011992   0.0020035
           HZ8           0.0010242   0.0004907   0.0011366  -0.0000468  -0.0204143
           HX9          -0.0006353   0.0000904  -0.0005278   0.0035356   0.0236340
           HY9           0.0000904  -0.0004405  -0.0000360   0.0011992   0.0020035
           HZ9           0.0005278   0.0000360   0.0003415  -0.0000468   0.0204143
                             HZ7         HX8         HY8         HZ8         HX9     
           HZ7           0.1935749
           HX8          -0.0140888   0.0672406
           HY8           0.0009557  -0.0075864   0.2547431
           HZ8          -0.0115213  -0.0133057   0.1377543   0.1562498
           HX9          -0.0140888   0.0024755  -0.0010042  -0.0010642   0.0672406
           HY9          -0.0009557   0.0010042  -0.0247732   0.0170267   0.0075864
           HZ9          -0.0115213  -0.0010642  -0.0170267   0.0143314  -0.0133057
                             HY9         HZ9     
           HY9           0.2547431
           HZ9          -0.1377543   0.1562498


 Atomic Masses
     1-   9   12.000000   15.994910   12.000000    1.007825    1.007825    1.007825    1.007825    1.007825    1.007825

 Mass weighted Second Derivative Matrix
                             CX1         CY1         CZ1         OX2         OY2     
           CX1           0.0517630
           CY1           0.0000000   0.0516954
           CZ1          -0.0052737  -0.0000000   0.0529379
           OX2          -0.0169987  -0.0000000  -0.0082608   0.0383678
           OY2           0.0000000  -0.0054705  -0.0000000  -0.0000000   0.0071409
           OZ2          -0.0048324  -0.0000000  -0.0129506  -0.0000000   0.0000000
           CX3          -0.0046023  -0.0000000   0.0013850  -0.0169987   0.0000000
           CY3          -0.0000000  -0.0001680   0.0000000  -0.0000000  -0.0054705
           CZ3          -0.0013850  -0.0000000   0.0015418   0.0082608   0.0000000
           HX4          -0.0618377  -0.0000000   0.0390790  -0.0097458  -0.0000000
           HY4          -0.0000000  -0.0175718  -0.0000000  -0.0000000   0.0002568
           HZ4           0.0437222  -0.0000000  -0.0541975  -0.0065254  -0.0000000
           HX5          -0.0179901  -0.0003529   0.0013375  -0.0040115   0.0074342
           HY5           0.0009875  -0.0693883   0.0345505   0.0016659   0.0021979
           HZ5          -0.0000160   0.0337593  -0.0405763  -0.0040977   0.0046210
           HX6          -0.0179901   0.0003529   0.0013375  -0.0040115  -0.0074342
           HY6          -0.0009875  -0.0693883  -0.0345505  -0.0016659   0.0021979
           HZ6          -0.0000160  -0.0337593  -0.0405763  -0.0040977  -0.0046210
           HX7          -0.0003703  -0.0000000   0.0020491  -0.0097458  -0.0000000
           HY7           0.0000000   0.0000638  -0.0000000   0.0000000   0.0002568
           HZ7           0.0007972   0.0000000  -0.0006061   0.0065254   0.0000000
           HX8           0.0015867   0.0009653   0.0012625  -0.0040115   0.0074342
           HY8          -0.0005361   0.0001379  -0.0000672   0.0016659   0.0021979
           HZ8          -0.0011298   0.0002434  -0.0002202   0.0040977  -0.0046210
           HX9           0.0015867  -0.0009653   0.0012625  -0.0040115  -0.0074342
           HY9           0.0005361   0.0001379   0.0000672  -0.0016659   0.0021979
           HZ9          -0.0011298  -0.0002434  -0.0002202   0.0040977   0.0046210
                             OZ2         CX3         CY3         CZ3         HX4     
           OZ2           0.0247868
           CX3           0.0048324   0.0517630
           CY3           0.0000000   0.0000000   0.0516954
           CZ3          -0.0129506   0.0052737   0.0000000   0.0529379
           HX4           0.0047992  -0.0003703   0.0000000  -0.0020491   0.2483861
           HY4          -0.0000000  -0.0000000   0.0000638  -0.0000000  -0.0000000
           HZ4           0.0047185  -0.0007972   0.0000000  -0.0006061  -0.1485304
           HX5          -0.0076120   0.0015867   0.0009653  -0.0012625   0.0035081
           HY5           0.0005459  -0.0005361   0.0001379   0.0000672  -0.0011898
           HZ5          -0.0047020   0.0011298  -0.0002434  -0.0002202   0.0000464
           HX6          -0.0076120   0.0015867  -0.0009653  -0.0012625   0.0035081
           HY6          -0.0005459   0.0005361   0.0001379  -0.0000672   0.0011898
           HZ6          -0.0047020   0.0011298   0.0002434  -0.0002202   0.0000464
           HX7          -0.0047992  -0.0618377  -0.0000000  -0.0390790  -0.0018925
           HY7          -0.0000000   0.0000000  -0.0175718   0.0000000   0.0000000
           HZ7           0.0047185  -0.0437222   0.0000000  -0.0541975   0.0009748
           HX8           0.0076120  -0.0179901  -0.0003529  -0.0013375  -0.0000138
           HY8          -0.0005459   0.0009875  -0.0693883  -0.0345505   0.0003200
           HZ8          -0.0047020   0.0000160  -0.0337593  -0.0405763   0.0002836
           HX9           0.0076120  -0.0179901   0.0003529  -0.0013375  -0.0000138
           HY9           0.0005459  -0.0009875  -0.0693883   0.0345505  -0.0003200
           HZ9          -0.0047020   0.0000160   0.0337593  -0.0405763   0.0002836
                             HY4         HZ4         HX5         HY5         HZ5     
           HY4           0.0542556
           HZ4          -0.0000000   0.1920719
           HX5          -0.0234505   0.0139795   0.0667185
           HY5           0.0019879  -0.0009483  -0.0075275   0.2527652
           HZ5           0.0202558  -0.0114319   0.0132024  -0.1366848   0.1550367
           HX6           0.0234505   0.0139795   0.0024563  -0.0009964   0.0010559
           HY6           0.0019879   0.0009483   0.0009964  -0.0245809  -0.0168945
           HZ6          -0.0202558  -0.0114319   0.0010559   0.0168945   0.0142201
           HX7          -0.0000000  -0.0009748  -0.0000138   0.0003200  -0.0002836
           HY7           0.0005294  -0.0000000  -0.0003688   0.0003148  -0.0002858
           HZ7           0.0000000   0.0006735   0.0002881  -0.0003660   0.0002136
           HX8          -0.0003688  -0.0002881  -0.0006304  -0.0000897  -0.0005238
           HY8           0.0003148   0.0003660  -0.0000897  -0.0004371   0.0000357
           HZ8           0.0002858   0.0002136   0.0005238  -0.0000357   0.0003388
           HX9           0.0003688  -0.0002881   0.0005444   0.0012895  -0.0010162
           HY9           0.0003148  -0.0003660  -0.0012895   0.0001513  -0.0004869
           HZ9          -0.0002858   0.0002136   0.0010162  -0.0004869   0.0011278
                             HX6         HY6         HZ6         HX7         HY7     
           HX6           0.0667185
           HY6           0.0075275   0.2527652
           HZ6           0.0132024   0.1366848   0.1550367
           HX7          -0.0000138  -0.0003200  -0.0002836   0.2483861
           HY7           0.0003688   0.0003148   0.0002858   0.0000000   0.0542556
           HZ7           0.0002881   0.0003660   0.0002136   0.1485304  -0.0000000
           HX8           0.0005444  -0.0012895  -0.0010162   0.0035081  -0.0234505
           HY8           0.0012895   0.0001513   0.0004869  -0.0011898   0.0019879
           HZ8           0.0010162   0.0004869   0.0011278  -0.0000464  -0.0202558
           HX9          -0.0006304   0.0000897  -0.0005238   0.0035081   0.0234505
           HY9           0.0000897  -0.0004371  -0.0000357   0.0011898   0.0019879
           HZ9           0.0005238   0.0000357   0.0003388  -0.0000464   0.0202558
                             HZ7         HX8         HY8         HZ8         HX9     
           HZ7           0.1920719
           HX8          -0.0139795   0.0667185
           HY8           0.0009483  -0.0075275   0.2527652
           HZ8          -0.0114319  -0.0132024   0.1366848   0.1550367
           HX9          -0.0139795   0.0024563  -0.0009964  -0.0010559   0.0667185
           HY9          -0.0009483   0.0009964  -0.0245809   0.0168945   0.0075275
           HZ9          -0.0114319  -0.0010559  -0.0168945   0.0142201  -0.0132024
                             HY9         HZ9     
           HY9           0.2527652
           HZ9          -0.1366848   0.1550367


 Mass Weighted 2nd Derivative Matrix Eigenvalues
     1-  10    0.000000    0.000000    0.000000    0.000000    0.000000    0.000000    0.001582    0.002576    0.007330    0.040730
    11-  20    0.056464    0.060662    0.064153    0.067722    0.073202    0.095384    0.097707    0.099076    0.099341    0.099624
    21-  27    0.101847    0.367905    0.371594    0.379574    0.380239    0.401638    0.402247

 Mass Weighted 2nd Derivative Matrix Eigenvectors
              1             2             3             4             5             6             7             8
    1    0.00000352    0.00000142    0.52227395   -0.00000024    0.00000043   -0.00000117    0.00000000    0.00000000
    2    0.09701105    0.58577079   -0.00000106    0.11195032    0.05473788    0.52359522   -0.10961395   -0.16849452
    3   -0.24302350   -0.44271903   -0.11386938    0.18687730    0.08945761    0.49100912    0.00000000    0.00000000
    4   -0.12581266   -0.18272787    0.51744393   -0.09424361   -0.16876583    0.26553127    0.00000000    0.00000000
    5    0.77363695   -0.10355126   -0.00000421    0.09283148   -0.09054830    0.27070680    0.00000000    0.44603998
    6   -0.08718600   -0.23025912    0.00000144    0.36061128    0.36268545    0.15873692    0.00000000    0.00000000
    7    0.00000352    0.00000142    0.52227395   -0.00000024    0.00000043   -0.00000117    0.00000000    0.00000000
    8    0.10585782   -0.01765403   -0.00000016    0.58572135   -0.52868691   -0.09012625    0.10961395   -0.16849452
    9    0.09198889    0.04383509    0.11387186    0.43781914    0.53883196   -0.21602497    0.00000000    0.00000000
   10   -0.02848661   -0.04137351    0.13199035   -0.02133880   -0.03821223    0.06012200    0.00000000    0.00000000
   11    0.17584469    0.13493001   -0.00000120   -0.08709015    0.11809765    0.22032336    0.36546018   -0.42460820
   12   -0.10533523   -0.17899727   -0.05672899    0.02801073   -0.02089729    0.21596465    0.00000000    0.00000000
   13    0.02542894    0.10470072    0.16930337   -0.03232401    0.09957111    0.01177110    0.16623731   -0.24900376
   14   -0.10971887    0.26507524    0.00000042    0.09372484   -0.01793056    0.15229579   -0.23816605    0.05877565
   15   -0.26531788   -0.00580141   -0.03480010    0.14291619   -0.03122663    0.14189078   -0.30471940    0.17453760
   16    0.02737466   -0.02801374    0.16930357    0.07187500   -0.02874463   -0.12320796   -0.16623731    0.24900376
   17   -0.10971887    0.26507524    0.00000042    0.09372484   -0.01793056    0.15229579   -0.23816605    0.05877565
   18    0.11916019   -0.25849825   -0.03480215   -0.03857128    0.07596728    0.15388618    0.30471940   -0.17453760
   19   -0.02848661   -0.04137351    0.13199035   -0.02133880   -0.03821223    0.06012200    0.00000000    0.00000000
   20    0.18025207   -0.16569099   -0.00000075    0.14893847   -0.17255950   -0.08542735   -0.36546018   -0.42460820
   21    0.06156504    0.06339976    0.05672971    0.15302778    0.20297710   -0.13627359    0.00000000    0.00000000
   22    0.02737466   -0.02801374    0.16930357    0.07187500   -0.02874463   -0.12320796   -0.16623731   -0.24900376
   23   -0.10701510    0.08065472    0.00000070    0.23852017   -0.19623862   -0.03527163    0.23816605    0.05877565
   24    0.22154769   -0.10979610    0.03480082    0.03812233    0.21330643   -0.06219972   -0.30471940   -0.17453760
   25    0.02542894    0.10470072    0.16930337   -0.03232401    0.09957111    0.01177110    0.16623731    0.24900376
   26   -0.10701510    0.08065472    0.00000070    0.23852017   -0.19623862   -0.03527163    0.23816605    0.05877565
   27   -0.16293038    0.14290073    0.03480287    0.21960979    0.10611252   -0.07419512    0.30471940    0.17453760
              9            10            11            12            13            14            15            16
    1    0.39829400   -0.48104349    0.09972111    0.00000000    0.00000000   -0.38991412    0.11706145   -0.20558460
    2    0.00000000    0.00000000    0.00000000   -0.30740130   -0.29885160    0.00000000    0.00000000    0.00000000
    3   -0.17085980   -0.19339736    0.36889146    0.00000000    0.00000000   -0.06507064   -0.32565655   -0.09912208
    4    0.00000000    0.00000000   -0.30895036    0.00000000    0.00000000    0.68153493    0.00000000   -0.11714980
    5    0.00000000    0.00000000    0.00000000    0.00000000    0.31425594    0.00000000    0.00000000    0.00000000
    6    0.48182565    0.49388199    0.00000000    0.00000000    0.00000000    0.00000000    0.41106747    0.00000000
    7   -0.39829400    0.48104349    0.09972111    0.00000000    0.00000000   -0.38991412   -0.11706145   -0.20558460
    8    0.00000000    0.00000000    0.00000000    0.30740130   -0.29885160    0.00000000    0.00000000    0.00000000
    9   -0.17085980   -0.19339736   -0.36889146    0.00000000    0.00000000    0.06507064   -0.32565655    0.09912208
   10   -0.02990839   -0.24959177   -0.28188066    0.00000000    0.00000000   -0.22894488    0.31129668    0.23926451
   11    0.00000000    0.00000000    0.00000000    0.18876631    0.17104982    0.00000000    0.00000000    0.00000000
   12   -0.23031041   -0.18857401   -0.26489023    0.00000000    0.00000000   -0.16833603    0.24314018    0.32282691
   13    0.25722732   -0.03950656    0.27658983    0.32559739    0.29924931    0.10842062   -0.25484045    0.35174123
   14   -0.00449221   -0.00649861   -0.03562522    0.11474726    0.11710405   -0.02313013    0.06300082    0.09327279
   15   -0.06993319   -0.06392456    0.02327987    0.25642790    0.25052373   -0.05547526    0.03088619    0.08584760
   16    0.25722732   -0.03950656    0.27658983   -0.32559739   -0.29924931    0.10842062   -0.25484045    0.35174123
   17    0.00449221    0.00649861    0.03562522    0.11474726    0.11710405    0.02313013   -0.06300082   -0.09327279
   18   -0.06993319   -0.06392456    0.02327987   -0.25642790   -0.25052373   -0.05547526    0.03088619    0.08584760
   19    0.02990839    0.24959177   -0.28188066    0.00000000    0.00000000   -0.22894488   -0.31129668    0.23926451
   20    0.00000000    0.00000000    0.00000000   -0.18876631    0.17104982    0.00000000    0.00000000    0.00000000
   21   -0.23031041   -0.18857401    0.26489023    0.00000000    0.00000000    0.16833603    0.24314018   -0.32282691
   22   -0.25722732    0.03950656    0.27658983   -0.32559739    0.29924931    0.10842062    0.25484045    0.35174123
   23    0.00449221    0.00649861   -0.03562522   -0.11474726    0.11710405   -0.02313013   -0.06300082    0.09327279
   24   -0.06993319   -0.06392456   -0.02327987    0.25642790   -0.25052373    0.05547526    0.03088619   -0.08584760
   25   -0.25722732    0.03950656    0.27658983    0.32559739   -0.29924931    0.10842062    0.25484045    0.35174123
   26   -0.00449221   -0.00649861    0.03562522   -0.11474726    0.11710405    0.02313013    0.06300082   -0.09327279
   27   -0.06993319   -0.06392456   -0.02327987   -0.25642790    0.25052373    0.05547526    0.03088619   -0.08584760
             17            18            19            20            21            22            23            24
    1    0.00000000    0.00000000    0.04002851   -0.22389407   -0.15141203    0.04104880    0.04779142    0.00000000
    2   -0.13681015   -0.13762948    0.00000000    0.00000000    0.00000000    0.00000000    0.00000000   -0.21988150
    3    0.00000000    0.00000000   -0.14367713   -0.01864381   -0.16880206    0.11481500    0.11896852    0.00000000
    4    0.00000000    0.00000000    0.03549432    0.00000000    0.00000000    0.01540634    0.00000000    0.00000000
    5    0.00000000   -0.05436630    0.00000000    0.00000000    0.00000000    0.00000000    0.00000000    0.00000000
    6    0.00000000    0.00000000    0.00000000    0.05707831   -0.06496112    0.00000000    0.00840086    0.00000000
    7    0.00000000    0.00000000    0.04002851    0.22389407    0.15141203    0.04104880   -0.04779142    0.00000000
    8    0.13681015   -0.13762948    0.00000000    0.00000000    0.00000000    0.00000000    0.00000000    0.21988150
    9    0.00000000    0.00000000    0.14367713   -0.01864381   -0.16880206   -0.11481500    0.11896852    0.00000000
   10    0.00000000    0.00000000   -0.11875267    0.25598175    0.05317207   -0.13516509   -0.13325186    0.00000000
   11    0.49949044    0.50205583    0.00000000    0.00000000    0.00000000    0.00000000    0.00000000   -0.01728268
   12    0.00000000    0.00000000   -0.18185080    0.36568009    0.07862443    0.11865706    0.10928199    0.00000000
   13   -0.31678505   -0.31311887   -0.04503604    0.26057013    0.22056814   -0.01858349   -0.02632159   -0.01445928
   14    0.04468385    0.04057232    0.27404290   -0.11559175    0.26425469    0.39400037    0.39275296    0.38421810
   15    0.11639040    0.11861943    0.37127971   -0.20752086    0.31662243   -0.26599009   -0.26826586   -0.27900555
   16    0.31678505    0.31311887   -0.04503604    0.26057013    0.22056814   -0.01858349   -0.02632159    0.01445928
   17    0.04468385    0.04057232   -0.27404290    0.11559175   -0.26425469   -0.39400037   -0.39275296    0.38421810
   18   -0.11639040   -0.11861943    0.37127971   -0.20752086    0.31662243   -0.26599009   -0.26826586    0.27900555
   19    0.00000000    0.00000000   -0.11875267   -0.25598175   -0.05317207   -0.13516509    0.13325186    0.00000000
   20   -0.49949044    0.50205583    0.00000000    0.00000000    0.00000000    0.00000000    0.00000000    0.01728268
   21    0.00000000    0.00000000    0.18185080    0.36568009    0.07862443   -0.11865706    0.10928199    0.00000000
   22    0.31678505   -0.31311887   -0.04503604   -0.26057013   -0.22056814   -0.01858349    0.02632159    0.01445928
   23   -0.04468385    0.04057232    0.27404290    0.11559175   -0.26425469    0.39400037   -0.39275296   -0.38421810
   24    0.11639040   -0.11861943   -0.37127971   -0.20752086    0.31662243    0.26599009   -0.26826586   -0.27900555
   25   -0.31678505    0.31311887   -0.04503604   -0.26057013   -0.22056814   -0.01858349    0.02632159   -0.01445928
   26   -0.04468385    0.04057232   -0.27404290   -0.11559175    0.26425469   -0.39400037    0.39275296   -0.38421810
   27   -0.11639040    0.11861943   -0.37127971   -0.20752086    0.31662243    0.26599009   -0.26826586    0.27900555
             25            26            27
    1    0.00000000   -0.14035769   -0.14462878
    2   -0.21808288    0.00000000    0.00000000
    3    0.00000000    0.15692023    0.15402784
    4    0.00000000   -0.00117664    0.00000000
    5   -0.00008192    0.00000000    0.00000000
    6    0.00000000    0.00000000   -0.00063894
    7    0.00000000   -0.14035769    0.14462878
    8   -0.21808288    0.00000000    0.00000000
    9    0.00000000   -0.15692023    0.15402784
   10    0.00000000    0.50302421    0.50377955
   11   -0.01431548    0.00000000    0.00000000
   12    0.00000000   -0.42166729   -0.42254492
   13   -0.02008859   -0.00817918   -0.00947425
   14    0.38350070    0.09570905    0.09231255
   15   -0.28043024   -0.05649853   -0.05383753
   16    0.02008859   -0.00817918   -0.00947425
   17    0.38350070   -0.09570905   -0.09231255
   18    0.28043024   -0.05649853   -0.05383753
   19    0.00000000    0.50302421   -0.50377955
   20   -0.01431548    0.00000000    0.00000000
   21    0.00000000    0.42166729   -0.42254492
   22   -0.02008859   -0.00817918    0.00947425
   23    0.38350070    0.09570905   -0.09231255
   24    0.28043024    0.05649853   -0.05383753
   25    0.02008859   -0.00817918    0.00947425
   26    0.38350070   -0.09570905    0.09231255
   27   -0.28043024    0.05649853   -0.05383753

   Low Vibration      Wavenumber
        Nr             [1/cm] 
        1                0.00
        2                0.00
        3                0.00
        4                0.00
        5                0.00
        6                0.00

     Vibration        Wavenumber
        Nr             [1/cm] 
        1              204.43
        2              260.89
        3              440.11
        4             1037.44
        5             1221.49
        6             1266.09
        7             1302.01
        8             1337.73
        9             1390.81
       10             1587.61
       11             1606.82
       12             1618.04
       13             1620.20
       14             1622.50
       15             1640.51
       16             3117.97
       17             3133.57
       18             3167.03
       19             3169.81
       20             3257.78
       21             3260.25

 FREQUENCIES * CALCULATION OF NORMAL MODES FOR HF-SCF


 Atomic Coordinates

  Nr  Atom  Charge       X              Y              Z

   1   C     6.00   -2.202685973    0.000000000   -0.449539965
   2   O     8.00    0.000000000    0.000000000    0.983505057
   3   C     6.00    2.202685973    0.000000000   -0.449539965
   4   H     1.00   -3.786576983    0.000000000    0.843095830
   5   H     1.00   -2.322933206    1.671651390   -1.647483890
   6   H     1.00   -2.322933206   -1.671651390   -1.647483890
   7   H     1.00    3.786576983    0.000000000    0.843095830
   8   H     1.00    2.322933206   -1.671651390   -1.647483890
   9   H     1.00    2.322933206    1.671651390   -1.647483890

 Gradient norm at reference geometry: 0.29763D-03

 Normal Modes

                              1 A2        2 B1        3 A1        4 A1        5 B2 
 Wavenumbers [cm-1]          204.43      260.89      440.11     1037.44     1221.49
 Intensities [km/mol]          0.00        0.00        0.00        0.00        0.00
 Intensities [relative]        0.00        0.00        0.00        0.00        0.00
           CX1             -0.00000    -0.00000     0.11498    -0.13887     0.02879
           CY1             -0.03164    -0.04864    -0.00000     0.00000    -0.00000
           CZ1             -0.00000     0.00000    -0.04932    -0.05583     0.10649
           OX2             -0.00000    -0.00000     0.00000     0.00000    -0.07725
           OY2              0.00000     0.11153     0.00000    -0.00000     0.00000
           OZ2              0.00000     0.00000     0.12048     0.12349    -0.00000
           CX3             -0.00000    -0.00000    -0.11498     0.13887     0.02879
           CY3              0.03164    -0.04864    -0.00000    -0.00000     0.00000
           CZ3              0.00000    -0.00000    -0.04932    -0.05583    -0.10649
           HX4             -0.00000    -0.00000    -0.02979    -0.24862    -0.28078
           HY4              0.36404    -0.42296    -0.00000     0.00000     0.00000
           HZ4             -0.00000     0.00000    -0.22941    -0.18784    -0.26386
           HX5              0.16559    -0.24804     0.25623    -0.03935     0.27551
           HY5             -0.23724     0.05855    -0.00447    -0.00647    -0.03549
           HZ5             -0.30353     0.17386    -0.06966    -0.06368     0.02319
           HX6             -0.16559     0.24804     0.25623    -0.03935     0.27551
           HY6             -0.23724     0.05855     0.00447     0.00647     0.03549
           HZ6              0.30353    -0.17386    -0.06966    -0.06368     0.02319
           HX7             -0.00000     0.00000     0.02979     0.24862    -0.28078
           HY7             -0.36404    -0.42296    -0.00000     0.00000     0.00000
           HZ7              0.00000    -0.00000    -0.22941    -0.18784     0.26386
           HX8             -0.16559    -0.24804    -0.25623     0.03935     0.27551
           HY8              0.23724     0.05855     0.00447     0.00647    -0.03549
           HZ8             -0.30353    -0.17386    -0.06966    -0.06368    -0.02319
           HX9              0.16559     0.24804    -0.25623     0.03935     0.27551
           HY9              0.23724     0.05855    -0.00447    -0.00647     0.03549
           HZ9              0.30353     0.17386    -0.06966    -0.06368    -0.02319

                              6 A2        7 B1        8 B2        9 A1       10 B2 
 Wavenumbers [cm-1]         1266.09     1302.01     1337.73     1390.81     1587.61
 Intensities [km/mol]          0.00        0.00        0.00        0.00        0.00
 Intensities [relative]        0.00        0.00        0.00        0.00        0.00
           CX1              0.00000    -0.00000    -0.11256     0.03379    -0.05935
           CY1             -0.08874    -0.08627    -0.00000    -0.00000     0.00000
           CZ1              0.00000    -0.00000    -0.01878    -0.09401    -0.02861
           OX2             -0.00000     0.00000     0.17041    -0.00000    -0.02929
           OY2             -0.00000     0.07858    -0.00000    -0.00000    -0.00000
           OZ2             -0.00000     0.00000     0.00000     0.10278    -0.00000
           CX3              0.00000    -0.00000    -0.11256    -0.03379    -0.05935
           CY3              0.08874    -0.08627     0.00000     0.00000     0.00000
           CZ3              0.00000     0.00000     0.01878    -0.09401     0.02861
           HX4             -0.00000     0.00000    -0.22805     0.31009     0.23833
           HY4              0.18803     0.17038     0.00000     0.00000    -0.00000
           HZ4             -0.00000     0.00000    -0.16768     0.24219     0.32157
           HX5              0.32433     0.29809     0.10800    -0.25385     0.35037
           HY5              0.11430     0.11665    -0.02304     0.06276     0.09291
           HZ5              0.25543     0.24955    -0.05526     0.03077     0.08551
           HX6             -0.32433    -0.29809     0.10800    -0.25385     0.35037
           HY6              0.11430     0.11665     0.02304    -0.06276    -0.09291
           HZ6             -0.25543    -0.24955    -0.05526     0.03077     0.08551
           HX7              0.00000     0.00000    -0.22805    -0.31009     0.23833
           HY7             -0.18803     0.17038    -0.00000    -0.00000     0.00000
           HZ7             -0.00000    -0.00000     0.16768     0.24219    -0.32157
           HX8             -0.32433     0.29809     0.10800     0.25385     0.35037
           HY8             -0.11430     0.11665    -0.02304    -0.06276     0.09291
           HZ8              0.25543    -0.24955     0.05526     0.03077    -0.08551
           HX9              0.32433    -0.29809     0.10800     0.25385     0.35037
           HY9             -0.11430     0.11665     0.02304     0.06276    -0.09291
           HZ9             -0.25543     0.24955     0.05526     0.03077    -0.08551

                             11 A2       12 B1       13 B2       14 A1       15 A1 
 Wavenumbers [cm-1]         1606.82     1618.04     1620.20     1622.50     1640.51
 Intensities [km/mol]          0.00        0.00        0.00        0.00        0.00
 Intensities [relative]        0.00        0.00        0.00        0.00        0.00
           CX1             -0.00000     0.00000     0.01156    -0.06463    -0.04371
           CY1             -0.03949    -0.03973     0.00000     0.00000    -0.00000
           CZ1              0.00000    -0.00000    -0.04148    -0.00538    -0.04873
           OX2             -0.00000     0.00000     0.00887    -0.00000     0.00000
           OY2              0.00000    -0.01359     0.00000     0.00000    -0.00000
           OZ2             -0.00000     0.00000     0.00000     0.01427    -0.01624
           CX3             -0.00000     0.00000     0.01156     0.06463     0.04371
           CY3              0.03949    -0.03973     0.00000     0.00000    -0.00000
           CZ3             -0.00000     0.00000     0.04148    -0.00538    -0.04873
           HX4              0.00000    -0.00000    -0.11829     0.25499     0.05297
           HY4              0.49755     0.50010    -0.00000    -0.00000     0.00000
           HZ4              0.00000    -0.00000    -0.18114     0.36426     0.07832
           HX5             -0.31555    -0.31190    -0.04486     0.25956     0.21971
           HY5              0.04451     0.04041     0.27298    -0.11514     0.26323
           HZ5              0.11594     0.11816     0.36984    -0.20671     0.31539
           HX6              0.31555     0.31190    -0.04486     0.25956     0.21971
           HY6              0.04451     0.04041    -0.27298     0.11514    -0.26323
           HZ6             -0.11594    -0.11816     0.36984    -0.20671     0.31539
           HX7              0.00000    -0.00000    -0.11829    -0.25499    -0.05297
           HY7             -0.49755     0.50010    -0.00000    -0.00000     0.00000
           HZ7             -0.00000     0.00000     0.18114     0.36426     0.07832
           HX8              0.31555    -0.31190    -0.04486    -0.25956    -0.21971
           HY8             -0.04451     0.04041     0.27298     0.11514    -0.26323
           HZ8              0.11594    -0.11816    -0.36984    -0.20671     0.31539
           HX9             -0.31555     0.31190    -0.04486    -0.25956    -0.21971
           HY9             -0.04451     0.04041    -0.27298    -0.11514     0.26323
           HZ9             -0.11594     0.11816    -0.36984    -0.20671     0.31539

                             16 B2       17 A1       18 A2       19 B1       20 B2 
 Wavenumbers [cm-1]         3117.97     3133.57     3167.03     3169.81     3257.78
 Intensities [km/mol]          0.00        0.00        0.00        0.00        0.00
 Intensities [relative]        0.00        0.00        0.00        0.00        0.00
           CX1              0.01185     0.01380    -0.00000    -0.00000    -0.04052
           CY1             -0.00000    -0.00000    -0.06347    -0.06296     0.00000
           CZ1              0.03314     0.03434    -0.00000    -0.00000     0.04530
           OX2              0.00385     0.00000     0.00000     0.00000    -0.00029
           OY2              0.00000     0.00000    -0.00000    -0.00002     0.00000
           OZ2             -0.00000     0.00210     0.00000     0.00000     0.00000
           CX3              0.01185    -0.01380     0.00000    -0.00000    -0.04052
           CY3             -0.00000     0.00000     0.06347    -0.06296     0.00000
           CZ3             -0.03314     0.03434    -0.00000     0.00000    -0.04530
           HX4             -0.13464    -0.13273     0.00000     0.00000     0.50107
           HY4             -0.00000    -0.00000    -0.01722    -0.01426     0.00000
           HZ4              0.11820     0.10886    -0.00000    -0.00000    -0.42003
           HX5             -0.01851    -0.02622    -0.01440    -0.02001    -0.00815
           HY5              0.39247     0.39123     0.38272     0.38201     0.09534
           HZ5             -0.26496    -0.26722    -0.27792    -0.27934    -0.05628
           HX6             -0.01851    -0.02622     0.01440     0.02001    -0.00815
           HY6             -0.39247    -0.39123     0.38272     0.38201    -0.09534
           HZ6             -0.26496    -0.26722     0.27792     0.27934    -0.05628
           HX7             -0.13464     0.13273    -0.00000     0.00000     0.50107
           HY7             -0.00000     0.00000     0.01722    -0.01426     0.00000
           HZ7             -0.11820     0.10886    -0.00000     0.00000     0.42003
           HX8             -0.01851     0.02622     0.01440    -0.02001    -0.00815
           HY8              0.39247    -0.39123    -0.38272     0.38201     0.09534
           HZ8              0.26496    -0.26722    -0.27792     0.27934     0.05628
           HX9             -0.01851     0.02622    -0.01440     0.02001    -0.00815
           HY9             -0.39247     0.39123    -0.38272     0.38201    -0.09534
           HZ9              0.26496    -0.26722     0.27792    -0.27934     0.05628

                             21 A1 
 Wavenumbers [cm-1]         3260.25
 Intensities [km/mol]          0.00
 Intensities [relative]        0.00
           CX1             -0.04175
           CY1             -0.00000
           CZ1              0.04446
           OX2             -0.00000
           OY2              0.00000
           OZ2             -0.00016
           CX3              0.04175
           CY3             -0.00000
           CZ3              0.04446
           HX4              0.50182
           HY4             -0.00000
           HZ4             -0.42090
           HX5             -0.00944
           HY5              0.09195
           HZ5             -0.05363
           HX6             -0.00944
           HY6             -0.09195
           HZ6             -0.05363
           HX7             -0.50182
           HY7             -0.00000
           HZ7             -0.42090
           HX8              0.00944
           HY8             -0.09195
           HZ8             -0.05363
           HX9              0.00944
           HY9              0.09195
           HZ9             -0.05363


 Normal Modes of low/zero frequencies

                                  1           2           3           4           5
 Wavenumbers [cm-1]            0.00        0.00        0.00        0.00        0.00
 Intensities [km/mol]          0.00        0.00        0.00        0.00        0.00
 Intensities [relative]        0.00        0.00        0.00        0.00        0.00
           CX1              0.00000     0.00000     0.15077    -0.00000     0.00000
           CY1              0.02800     0.16910    -0.00000     0.03232     0.01580
           CZ1             -0.07015    -0.12780    -0.03287     0.05395     0.02582
           OX2             -0.03146    -0.04569     0.12938    -0.02356    -0.04220
           OY2              0.19344    -0.02589    -0.00000     0.02321    -0.02264
           OZ2             -0.02180    -0.05757     0.00000     0.09017     0.09069
           CX3              0.00000     0.00000     0.15077    -0.00000     0.00000
           CY3              0.03056    -0.00510    -0.00000     0.16908    -0.15262
           CZ3              0.02655     0.01265     0.03287     0.12639     0.15555
           HX4             -0.02838    -0.04121     0.13148    -0.02126    -0.03806
           HY4              0.17516     0.13441    -0.00000    -0.08675     0.11764
           HZ4             -0.10493    -0.17830    -0.05651     0.02790    -0.02082
           HX5              0.02533     0.10429     0.16864    -0.03220     0.09918
           HY5             -0.10929     0.26404     0.00000     0.09336    -0.01786
           HZ5             -0.26429    -0.00578    -0.03466     0.14236    -0.03111
           HX6              0.02727    -0.02790     0.16865     0.07160    -0.02863
           HY6             -0.10929     0.26404     0.00000     0.09336    -0.01786
           HZ6              0.11870    -0.25749    -0.03467    -0.03842     0.07567
           HX7             -0.02838    -0.04121     0.13148    -0.02126    -0.03806
           HY7              0.17955    -0.16505    -0.00000     0.14836    -0.17189
           HZ7              0.06133     0.06315     0.05651     0.15243     0.20219
           HX8              0.02727    -0.02790     0.16865     0.07160    -0.02863
           HY8             -0.10660     0.08034     0.00000     0.23759    -0.19548
           HZ8              0.22069    -0.10937     0.03467     0.03797     0.21248
           HX9              0.02533     0.10429     0.16864    -0.03220     0.09918
           HY9             -0.10660     0.08034     0.00000     0.23759    -0.19548
           HZ9             -0.16230     0.14234     0.03467     0.21876     0.10570

                                  6
 Wavenumbers [cm-1]            0.00
 Intensities [km/mol]          0.00
 Intensities [relative]        0.00
           CX1             -0.00000
           CY1              0.15115
           CZ1              0.14174
           OX2              0.06639
           OY2              0.06769
           OZ2              0.03969
           CX3             -0.00000
           CY3             -0.02602
           CZ3             -0.06236
           HX4              0.05989
           HY4              0.21947
           HZ4              0.21512
           HX5              0.01173
           HY5              0.15170
           HZ5              0.14134
           HX6             -0.12273
           HY6              0.15170
           HZ6              0.15329
           HX7              0.05989
           HY7             -0.08510
           HZ7             -0.13574
           HX8             -0.12273
           HY8             -0.03513
           HZ8             -0.06196
           HX9              0.01173
           HY9             -0.03513
           HZ9             -0.07391


 Frequencies dumped to record   5400.2
 Frequency information read from record  5400.2

 Zero point energy:  0.08489151 [H]    18631.53 [1/CM]      222.88 [KJ/MOL]


 **********************************************************************************************************************************
 DATASETS  * FILE   NREC   LENGTH (MB)   RECORD NAMES
              1      19       38.30       500      610      700      900      950      970     1000      129      960     1100   
                                          VAR    BASINP    GEOM    SYMINP    ZMAT    AOBASIS   BASIS     P2S    ABASIS      S 
                                         1400     1410     1200     1210     1080     1600     1650     1300     1700   
                                           T        V       H0       H01     AOSYM     SMH    MOLCAS    ERIS     OPER   

              2       7        0.61       700     1000      520     2100     5300     5450     5400   
                                         GEOM     BASIS   MCVARS     RHF     HESS     NMOD     FREQ   

              4       5        0.67      4100     4000     4200     4300     4400   

 PROGRAMS   *        TOTAL      FREQ      OPTG    HF-SCF       INT
 CPU TIMES  *        14.90      8.63      5.53      0.10      0.53
 REAL TIME  *        15.60 SEC
 DISK USED  *        70.67 MB
 **********************************************************************************************************************************

 Dump information in style MOLDEN to ch3och3.molden                                                                  

 Molecular orbitals read from record     2100.2  Type=RHF/CANONICAL  
 Occupation numbers read from record     2100.2  Type=RHF/RHF  
 Orbital energies read from record       2100.2  Type=RHF/CANONICAL  
 Redundancy group numbers read from rec  2100.2  Type=RHF/RHF  

 DUMP ORBITAL  1.1 AS ORBITAL    1  occ=    2.0000  eig=  -20.5444  GROUP=   2
 DUMP ORBITAL  1.2 AS ORBITAL    2  occ=    2.0000  eig=  -11.2647  GROUP=   2
 DUMP ORBITAL  2.1 AS ORBITAL    3  occ=    2.0000  eig=  -11.2646  GROUP=   2
 DUMP ORBITAL  3.1 AS ORBITAL    4  occ=    2.0000  eig=   -1.3806  GROUP=   2
 DUMP ORBITAL  2.2 AS ORBITAL    5  occ=    2.0000  eig=   -0.9753  GROUP=   2
 DUMP ORBITAL  4.1 AS ORBITAL    6  occ=    2.0000  eig=   -0.8720  GROUP=   2
 DUMP ORBITAL  1.3 AS ORBITAL    7  occ=    2.0000  eig=   -0.6623  GROUP=   2
 DUMP ORBITAL  5.1 AS ORBITAL    8  occ=    2.0000  eig=   -0.6541  GROUP=   2
 DUMP ORBITAL  3.2 AS ORBITAL    9  occ=    2.0000  eig=   -0.6454  GROUP=   2
 DUMP ORBITAL  1.4 AS ORBITAL   10  occ=    2.0000  eig=   -0.5514  GROUP=   2
 DUMP ORBITAL  4.2 AS ORBITAL   11  occ=    2.0000  eig=   -0.5294  GROUP=   2
 DUMP ORBITAL  6.1 AS ORBITAL   12  occ=    2.0000  eig=   -0.4754  GROUP=   2
 DUMP ORBITAL  2.3 AS ORBITAL   13  occ=    2.0000  eig=   -0.4189  GROUP=   2

 Total charge:      26.000000
 Frequency information read from record  5400.2

 **********************************************************************************************************************************

 HF/6-311G(D,P)//HF/6-311G(D,P) energy=   -154.108630748257

    OPTG(HF-SCF)          HF-SCF
   -154.10863075   -154.10727925
 **********************************************************************************************************************************
 Molpro calculation terminated
