
 Working directory              : /tmp/lme/molpro.As65xrLk6b/
 Global scratch directory       : /tmp/lme/molpro.As65xrLk6b/
 Wavefunction directory         : /home/lme/wfu/
 Main file repository           : /tmp/lme/molpro.As65xrLk6b/

 id        : liedlgroup

 Nodes     nprocs
 sv1-c724     1
 GA implementation: MPI file
 GA implementation (serial work in mppx): MPI file

 Using customized tuning parameters: mindgm=1; mindgv=20; mindgc=4; mindgr=1; noblas=0; minvec=7
 default implementation of scratch files=df  


 Variables initialized (1042), CPU time= 0.00 sec
 
                     orient,mass
                     geometry=initial.xyz
 Including file /home/lme/Theoretische_Chemie/Nomodeco/deuterium_calculations/test_g2/H2O.molpro/run/H2O_1.molpro/initial.xyz
                     mass, H2=2.014;                                             ! Set custom mass for hydrogen
                     basis=6-311g(d,p)
                     {hf
                     start, atden}
                     optg;
                     {frequencies, symm=auto, print=0, analytical}
                     put, molden, H2O.molden
 Commands initialized (847), CPU time= 0.01 sec, 718 directives.
 Default parameters read. Elapsed time= 0.06 sec

 Checking input...
 Passed
1


                                         ***  PROGRAM SYSTEM MOLPRO  ***
                                       Copyright, TTI GmbH Stuttgart, 2015
                                    Version 2024.1 linked Wed Jan 31 11:42:09 2024


 **********************************************************************************************************************************
 LABEL *                                                                                                                                                                 
  (6 PROC) 64 bit serial version                                                         DATE: 30-Sep-24          TIME: 10:49:45  
 **********************************************************************************************************************************

 SHA1:             675817fde4514a4a933b69e420913a90cee4ef91
 **********************************************************************************************************************************

 Memory per process:        32 MW
 Total memory per node:     32 MW

 GA preallocation disabled
 GA check disabled

 Variable memory set to 32.0 MW

 ZCENTRE=MASS


 Geometry recognized as XYZ


 SETTING MASS FOR H2   (Z=  1)   TO   2.014
 SETTING BASIS          =    6-311G(D,P)


 Recomputing integrals since basis changed


 Using spherical harmonics

 Library entry O      S 6-311G               selected for orbital group  1
 Library entry O      P 6-311G               selected for orbital group  1
 Library entry O      D 6-311G*              selected for orbital group  1
 Library entry H      S 6-311G               selected for orbital group  2
 Library entry H      P 6-311G**             selected for orbital group  2


 PROGRAM * SEWARD (Integral evaluation for generally contracted gaussian basis sets)     Author: Roland Lindh, 1990

 Geometry written to block  1 of record 700

 Orientation using atomic masses  
 Molecule type: Asymmetric top
 Symmetry elements: X
 Rotational constants:     191.9389371    268.6777928    672.0158842 GHz  (calculated with average atomic masses)

 Point group  Cs  



 ATOMIC COORDINATES

 NR  ATOM    CHARGE       X              Y              Z

   1  O1      8.00    0.000000000   -0.138585021   -0.136609852
   2  H2      1.00    0.000000000    0.380963991    1.618354191
   3  H3      1.00    0.000000000    1.438593277   -1.065231727

 Bond lengths in Bohr (Angstrom)

 1-2  1.830254072  1-3  1.830254072
     ( 0.968528745)     ( 0.968528745)

 Bond angles

  2-1-3  103.99787336

 NUCLEAR CHARGE:                   10
 NUMBER OF PRIMITIVE AOS:          48
 NUMBER OF SYMMETRY AOS:           47
 NUMBER OF CONTRACTIONS:           30   (   23A'  +    7A"  )
 NUMBER OF INNER CORE ORBITALS:     0   (    0A'  +    0A"  )
 NUMBER OF OUTER CORE ORBITALS:     1   (    1A'  +    0A"  )
 NUMBER OF VALENCE ORBITALS:        6   (    5A'  +    1A"  )


 NUCLEAR REPULSION ENERGY    9.08863887

 Eigenvalues of metric

         1 0.186E-01 0.424E-01 0.903E-01 0.995E-01 0.114E+00 0.128E+00 0.149E+00 0.293E+00
         2 0.215E+00 0.461E+00 0.660E+00 0.909E+00 0.119E+01 0.130E+01 0.227E+01


 Contracted 2-electron integrals neglected if value below      1.0D-11
 AO integral compression algorithm  1   Integral accuracy      1.0D-11

     0.524 MB (compressed) written to integral file ( 91.8%)


 NUMBER OF SORTED TWO-ELECTRON INTEGRALS:      61816.     BUFFER LENGTH:  32768
 NUMBER OF SEGMENTS:   1  SEGMENT LENGTH:      61816      RECORD LENGTH: 524288

 Memory used in sort:       0.62 MW

 SORT1 READ       79218. AND WROTE       55476. INTEGRALS IN      1 RECORDS. CPU TIME:     0.00 SEC, REAL TIME:     0.00 SEC
 SORT2 READ       55476. AND WROTE       61816. INTEGRALS IN      2 RECORDS. CPU TIME:     0.01 SEC, REAL TIME:     0.01 SEC

 FILE SIZES:   FILE 1:    30.6 MBYTE,  FILE 4:     4.3 MBYTE,   TOTAL:     34.8 MBYTE

 OPERATOR DM      FOR CENTER  0  COORDINATES:    0.000000    0.000000    0.000000


 **********************************************************************************************************************************
 DATASETS  * FILE   NREC   LENGTH (MB)   RECORD NAMES
              1      19       28.95       500      610      700      900      950      970     1000      129      960     1100   
                                          VAR    BASINP    GEOM    SYMINP    ZMAT    AOBASIS   BASIS     P2S    ABASIS      S 
                                         1400     1410     1200     1210     1080     1600     1650     1300     1700   
                                           T        V       H0       H01     AOSYM     SMH    MOLCAS    ERIS     OPER   

 PROGRAMS   *        TOTAL       INT
 CPU TIMES  *         0.22      0.11
 REAL TIME  *         0.29 SEC
 DISK USED  *        33.56 MB
 **********************************************************************************************************************************


 Program * Restricted Hartree-Fock

 Orbital guess generated from atomic densities.

 Initial occupancy:   4   1

 NELEC=   10   SYM=1   MS2= 0   THRE=1.0D-08   THRD=1.0D-06   THRG=1.0D-06  HFMA2=F  DIIS_START=2   DIIS_MAX=10   DIIS_INCORE=F

 Level shifts:    0.00 (CLOSED)    0.00 (OPEN)    0.30 (GAP_MIN)

 ITER           ETOT              DE          GRAD        DDIFF     DIIS  NEXP   TIME(IT)  TIME(TOT)  DIAG
   1      -76.00571576     -76.00571576     0.00D+00     0.11D+00     0     0       0.00      0.01    start
   2      -76.03561144      -0.02989568     0.24D-01     0.18D-01     1     0       0.00      0.01    diag
   3      -76.04519246      -0.00958101     0.14D-01     0.61D-02     2     0       0.00      0.01    diag
   4      -76.04540947      -0.00021701     0.14D-02     0.11D-02     3     0       0.00      0.01    diag
   5      -76.04543118      -0.00002171     0.40D-03     0.47D-03     4     0       0.00      0.01    diag
   6      -76.04543192      -0.00000073     0.65D-04     0.81D-04     5     0       0.00      0.01    diag
   7      -76.04543194      -0.00000002     0.11D-04     0.14D-04     6     0       0.00      0.01    diag
   8      -76.04543194      -0.00000000     0.13D-05     0.17D-05     7     0       0.01      0.02    fixocc
   9      -76.04543194      -0.00000000     0.12D-06     0.21D-06     8     0       0.00      0.02    diag
  10      -76.04543194      -0.00000000     0.25D-07     0.19D-07     0     0       0.00      0.02    diag/orth

 Final occupancy:   4   1

 !RHF STATE 1.1 Energy                -76.045431938768
  RHF One-electron energy            -122.962873297816
  RHF Two-electron energy              37.828802485107
  RHF Kinetic energy                   76.016332446591
  RHF Nuclear energy                    9.088638873942
  RHF Virial quotient                  -1.000382805790

 !RHF STATE 1.1 Dipole moment           0.00000000     0.79918767     0.31496822
 Dipole moment /Debye                   0.00000000     2.03133245     0.80056937

 Orbital energies:

           1.1          2.1          3.1          4.1          5.1          6.1
    -20.547236    -1.336029    -0.699431    -0.570800     0.148681     0.215811

           1.2          2.2          3.2
     -0.499139     1.003919     1.514025


 HOMO      1.2    -0.499139 =     -13.5823eV
 LUMO      5.1     0.148681 =       4.0458eV
 LUMO-HOMO         0.647820 =      17.6281eV

 Orbitals saved in record  2100.2


 **********************************************************************************************************************************
 DATASETS  * FILE   NREC   LENGTH (MB)   RECORD NAMES
              1      19       28.95       500      610      700      900      950      970     1000      129      960     1100   
                                          VAR    BASINP    GEOM    SYMINP    ZMAT    AOBASIS   BASIS     P2S    ABASIS      S 
                                         1400     1410     1200     1210     1080     1600     1650     1300     1700   
                                           T        V       H0       H01     AOSYM     SMH    MOLCAS    ERIS     OPER   

              2       4        0.42       700     1000      520     2100   
                                         GEOM     BASIS   MCVARS     RHF  

 PROGRAMS   *        TOTAL    HF-SCF       INT
 CPU TIMES  *         0.24      0.02      0.11
 REAL TIME  *         0.31 SEC
 DISK USED  *        33.56 MB
 **********************************************************************************************************************************


 PROGRAM * OPT (Geometry optimization)     Authors: F. Eckert and H.-J. Werner


 BFGS update of hessian

 *** Long output written to logfile /home/lme/Theoretische_Chemie/Nomodeco/deuterium_calculations/test_g2/H2O.molpro/run/H2O_1.molpro/H2O_1.log ***


 Geometry optimization using default procedure for command HF-SCF

 Geometry written to block  1 of record 700

 PQS Optimization using delocalized internal coordinates

 Point group c2v. Number of degrees of freedom:    2

 ITER.   ENERGY(OLD)    ENERGY(NEW)      DE          GRADMAX     GRADNORM    GRADRMS     STEPMAX     STEPLEN     STEPRMS   CPU-time
   1   -76.04543194   -76.04698490    -0.00155296  0.03363663  0.04111605  0.02907344  0.06615145  0.07664742  0.05419791      0.08
   2   -76.04698490   -76.04701179    -0.00002689  0.00372188  0.00372472  0.00263378  0.01563981  0.01817320  0.01285040      0.17
   3   -76.04701179   -76.04701203    -0.00000024  0.00034271  0.00034371  0.00024304  0.00133313  0.00156878  0.00110929      0.24
   4   -76.04701203   -76.04701203    -0.00000000  0.00000329  0.00000332  0.00000234  0.00001160  0.00001286  0.00000909      0.33

 END OF GEOMETRY OPTIMIZATION.

 Geometry written to block  1 of record 700

 Recomputing wavefunction for reoriented structure

 Current geometry (xyz format, in Angstrom)

    3
 HF-SCF000/6-311G(D,P)  ENERGY=-76.04701203
 O          0.0000000000       -0.0710997239       -0.0686202562
 H          0.0000000000        0.2026878865        0.8316428192
 H          0.0000000000        0.7235941819       -0.5725000600

 **********************************************************************************************************************************


 **********************************************************************************************************************************
 DATASETS  * FILE   NREC   LENGTH (MB)   RECORD NAMES
              1      19       28.95       500      610      700      900      950      970     1000      129      960     1100   
                                          VAR    BASINP    GEOM    SYMINP    ZMAT    AOBASIS   BASIS     P2S    ABASIS      S 
                                         1400     1410     1200     1210     1080     1600     1650     1300     1700   
                                           T        V       H0       H01     AOSYM     SMH    MOLCAS    ERIS     OPER   

              2       4        0.42       700     1000      520     2100   
                                         GEOM     BASIS   MCVARS     RHF  

 PROGRAMS   *        TOTAL      OPTG    HF-SCF       INT
 CPU TIMES  *         0.62      0.38      0.02      0.11
 REAL TIME  *         0.83 SEC
 DISK USED  *        33.91 MB
 **********************************************************************************************************************************


 PROGRAM * HESSIAN

 PROGRAM * MCKINLEY (Hessian of the energy)     Author: A. Bernhardsson, R. Lindh

 Orbitals from record         2100.2

 Number of closed-shell orbitals:  5 (  4  1 )
 Number of occupied orbitals:      5 (  4  1 )

 Number of electrons= 10     Singlet     Space symmetry=1      Wavefunction type: CLOSED          


 McKinley needed      0.15 seconds of CPU time

 Entering CPHF calculation

 CPHF needed  68 iterations for  9 perturbations.  Total CPU time:    0.03 sec


 HF-SCF hessian saved to record  5300.2

 PROGRAM * FREQUENCIES (Calculation of harmonic vibrational spectra for HF-SCF)


 Permanent Dipole Moment [debye]
     1-   3    0.000000    0.000000    0.000000

 Dipole Moment Norm    0.0000000 [debye]

 Dipole Moment Derivatives [debye/ang]
              1             2             3             4             5             6             7             8
    1    0.00000000    0.00000000    0.00000000    0.00000000    0.00000000    0.00000000    0.00000000    0.00000000
    2    0.00000000    0.00000000    0.00000000    0.00000000    0.00000000    0.00000000    0.00000000    0.00000000
    3    0.00000000    0.00000000    0.00000000    0.00000000    0.00000000    0.00000000    0.00000000    0.00000000
              9
    1    0.00000000
    2    0.00000000
    3    0.00000000

 Projecting out rotations and translations

 Force Constants (Second Derivatives of the Energy) in [a.u.]
                             O1X1        O1Y1        O1Z1        H2X2        H2Y2    
           O1X1         -0.0000000
           O1Y1          0.0000000   0.5688465
           O1Z1          0.0000000  -0.0869651   0.7710055
           H2X2          0.0000000   0.0000000   0.0000000  -0.0000000
           H2Y2          0.0000000  -0.1062728  -0.1960505   0.0000000   0.0946561
           H2Z2          0.0000000  -0.1311125  -0.5636532   0.0000000   0.1467409
           H3X3          0.0000000   0.0000000   0.0000000   0.0000000   0.0000000
           H3Y3          0.0000000  -0.4625737   0.2830157   0.0000000   0.0116168
           H3Z3          0.0000000   0.2180777  -0.2073524   0.0000000   0.0493096
                             H2Z2        H3X3        H3Y3        H3Z3    
           H2Z2          0.5911840
           H3X3          0.0000000  -0.0000000
           H3Y3         -0.0156284   0.0000000   0.4509569
           H3Z3         -0.0275308   0.0000000  -0.2673873   0.2348832


 Atomic Masses
     1-   3   15.999400    2.014000    1.007940

 Mass weighted Second Derivative Matrix
                             O1X1        O1Y1        O1Z1        H2X2        H2Y2    
           O1X1         -0.0000000
           O1Y1          0.0000000   0.0355542
           O1Z1          0.0000000  -0.0054355   0.0481897
           H2X2          0.0000000   0.0000000   0.0000000  -0.0000000
           H2Y2          0.0000000  -0.0187215  -0.0345371   0.0000000   0.0469990
           H2Z2          0.0000000  -0.0230974  -0.0992957   0.0000000   0.0728604
           H3X3          0.0000000   0.0000000   0.0000000   0.0000000   0.0000000
           H3Y3          0.0000000  -0.1151892   0.0704760   0.0000000   0.0081534
           H3Z3          0.0000000   0.0543053  -0.0516345   0.0000000   0.0346086
                             H2Z2        H3X3        H3Y3        H3Z3    
           H2Z2          0.2935373
           H3X3          0.0000000  -0.0000000
           H3Y3         -0.0109690   0.0000000   0.4474045
           H3Z3         -0.0193229   0.0000000  -0.2652809   0.2330329


 Mass Weighted 2nd Derivative Matrix Eigenvalues
     1-   9    0.000000    0.000000    0.000000    0.000000    0.000000    0.000000    0.089116    0.350824    0.664778

 Mass Weighted 2nd Derivative Matrix Eigenvectors
              1             2             3             4             5             6             7             8
    1    0.00000000    0.00000000    0.00000000    1.00000000    0.00000000    0.00000000    0.00000000    0.00000000
    2    0.80468451    0.33072794   -0.29811351    0.00000000    0.00825773    0.15983352   -0.28552294   -0.09801977
    3   -0.45449071    0.71910165   -0.12776777    0.00000000    0.00427006    0.36551183   -0.10215629   -0.30821015
    4    0.20566236    0.06278717    0.86049652    0.00000000    0.16581662    0.43105841    0.00000000    0.00000000
    5    0.02870700   -0.21476634   -0.34678162    0.00000000    0.01085401    0.70567055    0.51946021    0.25346284
    6   -0.08315592    0.35613416    0.02796516    0.00000000   -0.00089491   -0.06768026   -0.18252937    0.90929765
    7   -0.03923717   -0.01199831   -0.13732364    0.00000000    0.98604445   -0.08470568    0.00000000    0.00000000
    8    0.30364962    0.21451038    0.02060481    0.00000000   -0.00106497   -0.21684202    0.40327812    0.03224102
    9    0.04628585    0.38788508    0.11843812    0.00000000   -0.00387674   -0.31352184    0.66502002   -0.05738914
              9
    1    0.00000000
    2   -0.19360792
    3    0.14477524
    4    0.00000000
    5   -0.02495564
    6   -0.02740252
    7    0.00000000
    8    0.80663705
    9   -0.53806978

   Low Vibration      Wavenumber
        Nr             [1/cm] 
        1                0.00
        2                0.00
        3                0.00
        4                0.00
        5                0.00
        6                0.00

     Vibration        Wavenumber
        Nr             [1/cm] 
        1             1534.55
        2             3044.73
        3             4191.24

 FREQUENCIES * CALCULATION OF NORMAL MODES FOR HF-SCF


 Atomic Coordinates

  Nr  Atom  Charge       X              Y              Z

   1   O1    8.00    0.000000000   -0.134359006   -0.129673491
   2   H2    1.00    0.000000000    0.383024594    1.571577162
   3   H3    1.00    0.000000000    1.367394829   -1.081868320

 Gradient norm at reference geometry: 0.30071D-05

 Normal Modes

                              1 A`        2 A`        3 A` 
 Wavenumbers [cm-1]         1534.55     3044.73     4191.24
 Intensities [km/mol]          0.00        0.00        0.00
 Intensities [relative]        0.00        0.00        0.00
           O1X1             0.00000    -0.00000     0.00000
           O1Y1            -0.07138    -0.02451    -0.04840
           O1Z1            -0.02554    -0.07705     0.03619
           H2X2            -0.00000     0.00000    -0.00000
           H2Y2             0.36603     0.17860    -0.01758
           H2Z2            -0.12862     0.64073    -0.01931
           H3X3            -0.00000    -0.00000     0.00000
           H3Y3             0.40169     0.03211     0.80345
           H3Z3             0.66240    -0.05716    -0.53595


 Normal Modes of low/zero frequencies

                                  1           2           3           4           5
 Wavenumbers [cm-1]            0.00        0.00        0.00        0.00        0.00
 Intensities [km/mol]          0.00        0.00        0.00        0.00        0.00
 Intensities [relative]        0.00        0.00        0.00        0.00        0.00
           O1X1            -0.00000    -0.00000    -0.00000     0.25000     0.00000
           O1Y1             0.20117     0.08268    -0.07453    -0.00000     0.00206
           O1Z1            -0.11362     0.17978    -0.03194    -0.00000     0.00107
           H2X2             0.14492     0.04424     0.60634    -0.00000     0.11684
           H2Y2             0.02023    -0.15133    -0.24436    -0.00000     0.00765
           H2Z2            -0.05860     0.25095     0.01971     0.00000    -0.00063
           H3X3            -0.03908    -0.01195    -0.13678    -0.00000     0.98215
           H3Y3             0.30245     0.21366     0.02052     0.00000    -0.00106
           H3Z3             0.04610     0.38635     0.11797     0.00000    -0.00386

                                  6
 Wavenumbers [cm-1]            0.00
 Intensities [km/mol]          0.00
 Intensities [relative]        0.00
           O1X1            -0.00000
           O1Y1             0.03996
           O1Z1             0.09138
           H2X2             0.30374
           H2Y2             0.49725
           H2Z2            -0.04769
           H3X3            -0.08437
           H3Y3            -0.21599
           H3Z3            -0.31228


 Frequencies dumped to record   5400.2
 Frequency information read from record  5400.2

 Zero point energy:  0.01998072 [H]     4385.26 [1/CM]       52.46 [KJ/MOL]


 **********************************************************************************************************************************
 DATASETS  * FILE   NREC   LENGTH (MB)   RECORD NAMES
              1      19       28.95       500      610      700      900      950      970     1000      129      960     1100   
                                          VAR    BASINP    GEOM    SYMINP    ZMAT    AOBASIS   BASIS     P2S    ABASIS      S 
                                         1400     1410     1200     1210     1080     1600     1650     1300     1700   
                                           T        V       H0       H01     AOSYM     SMH    MOLCAS    ERIS     OPER   

              2       7        0.43       700     1000      520     2100     5300     5450     5400   
                                         GEOM     BASIS   MCVARS     RHF     HESS     NMOD     FREQ   

              4       5        0.15      4100     4000     4200     4300     4400   

 PROGRAMS   *        TOTAL      FREQ      OPTG    HF-SCF       INT
 CPU TIMES  *         0.80      0.18      0.38      0.02      0.11
 REAL TIME  *         1.03 SEC
 DISK USED  *        33.91 MB
 **********************************************************************************************************************************

 Dump information in style MOLDEN to h2o.molden                                                                      

 Molecular orbitals read from record     2100.2  Type=RHF/CANONICAL  
 Occupation numbers read from record     2100.2  Type=RHF/RHF  
 Orbital energies read from record       2100.2  Type=RHF/CANONICAL  
 Redundancy group numbers read from rec  2100.2  Type=RHF/RHF  

 DUMP ORBITAL  1.1 AS ORBITAL    1  occ=    2.0000  eig=  -20.5413  GROUP=   2
 DUMP ORBITAL  2.1 AS ORBITAL    2  occ=    2.0000  eig=   -1.3491  GROUP=   2
 DUMP ORBITAL  3.1 AS ORBITAL    3  occ=    2.0000  eig=   -0.7172  GROUP=   2
 DUMP ORBITAL  4.1 AS ORBITAL    4  occ=    2.0000  eig=   -0.5729  GROUP=   2
 DUMP ORBITAL  1.2 AS ORBITAL    5  occ=    2.0000  eig=   -0.5007  GROUP=   2

 Total charge:      10.000000
 Frequency information read from record  5400.2

 **********************************************************************************************************************************

 HF/6-311G(D,P)//HF/6-311G(D,P) energy=    -76.047012027808

    OPTG(HF-SCF)          HF-SCF
    -76.04701203    -76.04543194
 **********************************************************************************************************************************
 Molpro calculation terminated
