[Molden Format]
[Molpro variables]
_NUMVAR=  1058.000000000000    
_AVOGAD= 0.6022140760000000E+24
_BOLTZ= 0.1380649000000000E-22
_CLIGHTSI=  299792458.0000000    
_JOULE= 0.4359744722207100E-17
_JPCAL=  4.184000000000000    
_PLANCK= 0.6626070150000000E-33
_BOHR= 0.5291772109030000E-10
_ECHARG= 0.1602176634000000E-18
_ENULL= 0.8854187812800001E-11
_MU= 0.1660539066600000E-26
_EMASS= 0.9109383701500001E-30
_AMU2AU=  1822.888486217313    
_CLIGHT=  29979245800.00000    
_EV= 0.3674932217565494E-01
_KJOULE= 0.3808798847133432E-03
_KJOULE/MOL= 0.3808798847133432E-03
_CM= 0.4556335252912009E-05
_CM-1= 0.4556335252912009E-05
_DEB2SI= 0.3335640951981520E-29
_KCAL= 0.1593601437640628E-02
_KCAL/MOL= 0.1593601437640628E-02
_KELVIN= 0.3166811563455608E-05
_HERTZ= 0.1519829846057038E-15
_HZ= 0.1519829846057038E-15
_TOA= 0.5291772109030000    
_TOANG= 0.5291772109030000    
_TORAD= 0.1745329251994330E-01
_TOCM=  219474.6313631965    
_TODEBYE=  2.541746473194078    
_TOE= 0.4803204712570263E-09
_TOEV=  27.21138624598803    
_TOHERTZ=  6579683920501656.    
_TOHZ=  6579683920501656.    
_TOK=  315775.0248040668    
_TOKCAL=  627.5094740630558    
_TOKELVIN=  315775.0248040668    
_TOKJ=  2625.499639479825    
_TOKJOULE=  2625.499639479825    
_TOKG= 0.1660539066600000E-26
_ANG=  1.889726124625770    
_ANGSTROM=  1.889726124625770    
_RPAREF=  0.000000000000000    
_RPADISS=  0.000000000000000    
_IGNORE_UNDEF=  2.000000000000000    
_STRICTCHECK=  0.000000000000000    
!SEWARD=  0.000000000000000    
!MULTI=  0.000000000000000    
!DFMULTI=  0.000000000000000    
!NUMHESS=  0.000000000000000    
_SEW_ONEEL=  0.000000000000000    
_CPPDONE=FALSE
_DKROLL_DONE=  0.000000000000000    
_FNUC_DONE=  0.000000000000000    
_FOCKDONE=TRUE
_GRADONE=FALSE
_HESSDONE=TRUE
_INTDONE=TRUE
_SCFDONE=TRUE
_MODUL_BLOCK=FALSE
_MODUL_SLATER=TRUE
_MODUL_MRCC=FALSE
_MODUL_NBO6=FALSE
_MODUL_NECI=FALSE
_MODUL_AIMS=TRUE
_MODUL_HDF5=FALSE
_MODUL_GECCO=FALSE
_ISWINDOWS=FALSE
_MRCC_EXEC=
_FITC_AO_SAVED=FALSE
_FITC_MO_SAVED=FALSE
_LSTYP=SEWARD
_INTYP=INTS
_GEOMTYP=XYZ
_GRADTYP=ALASKA
_DIRECT=FALSE
_DKHO= -1.000000000000000    
_FNUC=  0.000000000000000    
_SYNCM=  0.000000000000000    
_BASIS=6-311G(D,P)
_ZCENTRE=MASS
_ZORIENT=  1.000000000000000    
_NELEC=  10.00000000000000    
!SPIN=  0.000000000000000    
_OPTCONV= 0.1286590291981824E-04
_QSDSTEP=  0.000000000000000    
_QSDIRC=  0.000000000000000    
_PROGRAM=FREQ
_CPUSTEP= 0.1100000000000000    
_SYSSTEP= 0.1000000000000001E-01
_WALLSTEP= 0.1300000000000000    
!DFSCF=  0.000000000000000    
!SCSGRD=  0.000000000000000    
_NCEN=  3.000000000000000    
_CPUTOT= 0.6200000000000000    
_DFTEXFAC=  1.000000000000000    
_DMX=  0.000000000000000    
_DMY=  0.000000000000000    
_DMZ=-0.8410289956477746    
_DMX_SCF=  0.000000000000000    
_DMY_SCF=  0.000000000000000    
_DMZ_SCF=-0.8410289956477746    
_FREQUENCIES= 0.2084143391117164E-04
_HOMO=  1.200000000000000    
_EHOMO=-0.5006662238548932    
_LUMO=  4.100000000000000    
_ELUMO= 0.1525987473170689    
_ENERGY= -76.04701202779403    
_ENERGY_METHOD=HF
_ENERGY_BASIS=6-311G(D,P)
_GEOMETRY_METHOD=HF
_GEOMETRY_BASIS=6-311G(D,P)
_ENUC=  9.351280176644085    
_GRADENERG= -76.04701202777328    
_GRADEXFAC=  9999.000000000000    
_GRADMETHOD=  1.000000000000000    
_NMRMETHOD=  0.000000000000000    
_NMRMAGNET=  0.000000000000000    
_VIRIAL= 0.5992639035472012E-05
!GRID_FREEZE= -1.000000000000000    
!NEESE_INDEX=  0.000000000000000    
_ITERATIONS=  2.000000000000000    
_LASTNELEC=  10.00000000000000    
_LASTSPIN=  0.000000000000000    
_LASTSYM=  1.000000000000000    
_MPP_PROG=  0.000000000000000    
_MSNSTATES=  0.000000000000000    
_RS2PHASE=  0.000000000000000    
_NPROC_MPP=  1.000000000000000    
_NPROC_SMP=  6.000000000000000    
_NUMSTEP=  0.000000000000000    
_OPTCONVMX= 0.1160546792454251E-04
_OPTCONVRMS= 0.9097567200691283E-05
_OPTGRAD= 0.3316034305954332E-05
_OPTGRADMX= 0.3294896167122282E-05
_OPTGRADRMS= 0.2344790344387535E-05
!GMAXLAST= 0.3294896167122282E-05
!DMAXLAST= 0.1160546792454251E-04
!DELAST= 0.2413276263268926E-06
_OPTSTEP=  4.000000000000000    
_ORBITAL=  2100.200000000000    
_PI=  3.141592653589793    
_SEIG_MIN= 0.1696961160314979E-01
_SEWPROP=TRUE
_STATUS=  1.000000000000000    
_SYSTOT= 0.2800000000000000    
_VERSION=  2024001.000000000    
_WALLTOT= 0.9000000000000000    
_ZPE= 0.1679925095439070E-01
_DATE=30-Sep-24
_LASTORB=0
_OUTPUT=/home/lme/Theoretische_Chemie/Nomodeco/deuterium_calculations/test_g2/H2O.molpro/run/H2O_2.molpro/H2O_2.out
_PGROUP=C2v
_TIME=10:51:49
_LIBMOL=/usr/local/molpro/molpro_2024.1.0_sockets/lib/
_VIGRDC=  0.000000000000000    
!VIBCNT=  0.000000000000000    
!SURFREC=  0.000000000000000    
!XSURFREC=  0.000000000000000    
!XPOLYREC=  0.000000000000000    
!ROTREC=  0.000000000000000    
!POLYREC=  0.000000000000000    
!DIPREC=  0.000000000000000    
!DIP4DREC=  0.000000000000000    
!DIPROT=  0.000000000000000    
!DIP4DROT=  0.000000000000000    
!PTREC=  0.000000000000000    
!PT4DREC=  0.000000000000000    
!VSCFREC=  0.000000000000000    
!VCIREC=  0.000000000000000    
!PVCIREC=  0.000000000000000    
!VMP2REC=  0.000000000000000    
!VMCSCFREC=  0.000000000000000    
!VMRCIREC=  0.000000000000000    
!VIBSTATEREC=  0.000000000000000    
!VIBSTATECNT=  0.000000000000000    
!VIBINFO=  0.000000000000000    
!GAREC=  0.000000000000000    
!SCFORB=  21002.00000000000    
!DEFCORE=  1.000000000000000    
!SCORE=  0.000000000000000    
!NEWMOL=  0.000000000000000    
!NEWSYM=  0.000000000000000    
_SLFILES=slscratch
_NGSSTO=  9.000000000000000    
_SIN=SIN
_COS=COS
_TAN=TAN
_ACOS=ACOS
_ASIN=ASIN
_ATAN=ATAN
_COSH=COSH
_SINH=SINH
_TANH=TANH
_ABS=ABS
_MOD=MOD
_ERF=ERF
_REFC=REFC
_ERFC=ERFC
_HYPOT=HYPOT
_J0=J0
_J1=J1
_JN=JN
_GAMMA=GAMMA
_LGAMMA=LGAMMA
_Y0=Y0
_Y1=Y1
_YN=YN
_EXP=EXP
_LOG=LOG
_LOG10=LOG10
_SQRT=SQRT
_INT=INT
_NINT=NINT
_MAX=MAX
_MIN=MIN
_COSMO=  0.000000000000000    
_COSMOIT=  0.000000000000000    
_COSMOES=  0.000000000000000    
_COSMOEDS=  0.000000000000000    
_COSMOEC=  0.000000000000000    
_COSMOEDCORR=  0.000000000000000    
_FEPSI=  1.000000000000000    
_SL_IsMM=  0.000000000000000    
_SL_NSYM=  4.000000000000000    
_SL_System_BitSw=  0.000000000000000    
_SL_Unique_atoms=  0.000000000000000    
_SL_GRAD=  0.000000000000000    
_SL_MAXUPD_Hess=  5.000000000000000    
_SL_N_PRINT_COD=  5.000000000000000    
_SL_PRINT_CODES=  0.000000000000000    
_SL_BasType=  0.000000000000000    
_SL_Energy_Pred=  0.000000000000000    
_SL_New_Coords=  0.000000000000000    
_SL_Total_Nuclea=  0.000000000000000    
_SL_Highest_Mltp=  0.000000000000000    
_SL_Ref_Geom=  0.000000000000000    
_SL_Symmetry_ope=  1.000000000000000    
_SL_agrad=  0.000000000000000    
_SL_GrdMax=  0.000000000000000    
_SL_GrdNorm=  0.000000000000000    
_SL_GrdRMS=  0.000000000000000    
_SL_Hss_Q=  0.000000000000000    
_SL_Hss_X=  0.000000000000000    
_SL_BMxOld=  0.000000000000000    
_SL_KtB=  0.000000000000000    
_SL_TROld=  0.000000000000000    
_SL_No_of_Intern=  0.000000000000000    
_SL_Hess=  0.000000000000000    
_SL_K=  0.000000000000000    
!LATTICE= -1.000000000000000    
!NEWLATTICE=  0.000000000000000    
!LATGRAD_VAR=FALSE
!SEW_LATTICE=  1.000000000000000    
!AIC_ONEEL=  0.000000000000000    
!LOCAL=  0.000000000000000    
!SAVEDOM= -1.000000000000000    
!RESTDOM= -1.000000000000000    
!SAVEDOM_HF= -1.000000000000000    
!RESTDOM_HF= -1.000000000000000    
!HESSREC=  5300.200000000000    
!FREQREC=  5400.200000000000    
!NMODREC=  5450.200000000000    
!GTASKS=  0.000000000000000    
!HTASKS=  0.000000000000000    
!SAVEDOM_EOM= -1.000000000000000    
!RESTDOM_EOM= -1.000000000000000    
!GRADSTATE= -1.000000000000000    
!DEBUG=  0.000000000000000    
!CFIT_CPHF=  0.000000000000000    
!RDOMAUX_CPHF=  0.000000000000000    
!THRAO_CPHF= 0.1000000000000000E-11
!THRMO_CPHF= 0.1000000000000000E-11
!THROV_CPHF= 0.1000000000000000E-13
!THRSW_CPHF= 0.1000000000000000E-11
!THRPROD_CPHF= 0.1000000000000000E-11
!THRAOPR_CPHF= 0.1000000000000000E-11
!CFIT_SCFGRD=  0.000000000000000    
!RDOMAUX_SCFGRD=  0.000000000000000    
!THRAO_SCFGRD= 0.1000000000000000E-11
!THRMO_SCFGRD= 0.1000000000000000E-11
!THROV_SCFGRD= 0.1000000000000000E-13
!THRSW_SCFGRD= 0.1000000000000000E-11
!THRPROD_SCFGRD= 0.1000000000000000E-11
!THRAOPR_SCFGRD= 0.1000000000000000E-11
!LOCFIT_SCF=  0.000000000000000    
!LOCFIT_MP2=  0.000000000000000    
_RIDOM=  0.000000000000000    
!CC2_METHOD=  0.000000000000000    
_BASIS2006=FALSE
_SVDDEL= -1.000000000000000    
_SVDDELA= -1.000000000000000    
_SVDDELP= -1.000000000000000    
_SVDDELF= -1.000000000000000    
_SVDDELS= -1.000000000000000    
_SVDDEL_ABS= -1.000000000000000    
_SVDDELA_ABS= -1.000000000000000    
_SVDDELP_ABS= -1.000000000000000    
_SVDDELF_ABS= -1.000000000000000    
_SVDDELS_ABS= -1.000000000000000    
_MAXBASIS=  0.000000000000000    
!OPT_CONICAL=  0.000000000000000    
!CLEARSP_JGRID=  0.000000000000000    
_GRDHYBR=  0.000000000000000    
_STATEGRAD=  1.000000000000000    
_4EXT_NDISKS=  1.000000000000000    
!EMBEDFLAG=  1.000000000000000    
!EMBED=FALSE
!EMBED_F12=FALSE
!EMBEDNUC=  0.000000000000000    
_EMBEDENERGY=  0.000000000000000    
!EMBED_DFC=FALSE
!NUM_VOIDS=  0.000000000000000    
_IBODY=  0.000000000000000    
_EMBE_CORR=  0.000000000000000    
!EMBED_PROJ=FALSE
!EMB_PROJ_ZMU=  1000000.000000000    
!CORRECTION_HF=  0.000000000000000    
!EMBED_AORB=  0.000000000000000    
!EMBED_NACORR=  0.000000000000000    
!EMBED_MP2=FALSE
!EMBED_TRUNC_PERTURBATION=FALSE
!EMBED_FROZEN=  0.000000000000000    
!EMBED_ACTIVE=  0.000000000000000    
_CHANGE_BASIS=FALSE
_RESTORE_BASIS=FALSE
_FIX_EMBED_GUESS=FALSE
_EMBED_SCF=FALSE
_NEOBAS=FALSE
_NEOOVE=FALSE
_PRINEO=FALSE
_HUZINAGA_T=FALSE
_HUZINAGA_F=FALSE
_HUZINAGA=FALSE
_HUZINAGA_CORRECT=FALSE
!FASTLATGRAD=  1.000000000000000    
!FASTVLAMBDA= -1.000000000000000    
!IFORCE= -1.000000000000000    
!USESYM= -1.000000000000000    
_SINDEX=  0.000000000000000    
_AVDOM_OSV=  0.000000000000000    
_AVDOM_PNO=  0.000000000000000    
_AVDOM_PNOCC=  0.000000000000000    
_AVDOM_TNO=  0.000000000000000    
_AVDOM_TNOIT=  0.000000000000000    
_AVDOM_PAO=  0.000000000000000    
_AVDOM_LMO=  0.000000000000000    
_CC2OSV_FLAG=  0.000000000000000    
_EOMCCSD_CONV=FALSE
_TMADC2_FLAG=FALSE
_PROPADC2_FLAG=FALSE
_LEN_VirQ=  0.000000000000000    
_GRDCC2LR_FLAG=FALSE
_GRDADC2_FLAG=FALSE
_RO_VGLOBAL=  0.000000000000000    
_OPT=FALSE
_FREQ=FALSE
_HESS=FALSE
_CMRCC_callName=EMPTY
_CMRCC_callCount=  0.000000000000000    
_GECCO_CIROOT=  1.000000000000000    
_SYM_CATION=  2.000000000000000    
_MON_A=FALSE
_MON_B=FALSE
_MAXGEOM=  100.0000000000000    
!MAXGEOM=  100.0000000000000    
_NCORE=  0.000000000000000    
_NLARGECORE=  0.000000000000000    
GX1=  0.000000000000000    
GY1=  0.000000000000000    
GZ1= 0.1146044367069649    
GX2=  0.000000000000000    
GY2= 0.7488258446277478    
GZ2=-0.4552140577580474    
GX3=  0.000000000000000    
GY3=-0.7488258446277478    
GZ3=-0.4552140577580474    
O1X1=  0.000000000000000    
O1Y1=  0.000000000000000    
O1Z1= 0.2165709980431722    
H2X2=  0.000000000000000    
H2Y2=  1.415075761388013    
H2Z2=-0.8602298972422864    
H3X3=  0.000000000000000    
H3Y3= -1.415075761388013    
H3Z3=-0.8602298972422864    
[Atoms] Angs
O     1    8         0.0000000000        0.0000000000        0.1146044367
H     2    1         0.0000000000        0.7488258446       -0.4552140578
H     3    1         0.0000000000       -0.7488258446       -0.4552140578
[GTO]
   1 0
 s    6  1.00
  0.8588500000D+04  0.1895150083D-02
  0.1297230000D+04  0.1438590063D-01
  0.2992960000D+03  0.7073200310D-01
  0.8737710000D+02  0.2400010105D+00
  0.2567890000D+02  0.5947970261D+00
  0.3740040000D+01  0.2808020123D+00
 s    3  1.00
  0.4211750000D+02  0.1138890124D+00
  0.9628370000D+01  0.9208111006D+00
  0.2853320000D+01 -0.3274470358D-02
 s    1  1.00
  0.9056610000D+00  0.1000000000D+01
 s    1  1.00
  0.2556110000D+00  0.1000000000D+01
 p    3  1.00
  0.4211750000D+02  0.3651139738D-01
  0.9628370000D+01  0.2371529830D+00
  0.2853320000D+01  0.8197019412D+00
 p    1  1.00
  0.9056610000D+00  0.1000000000D+01
 p    1  1.00
  0.2556110000D+00  0.1000000000D+01
 d    1  1.00
  0.1292000000D+01  0.1000000000D+01
  
   2 0
 s    3  1.00
  0.3386500000D+02  0.2549381454D-01
  0.5094790000D+01  0.1903731086D+00
  0.1158790000D+01  0.8521614860D+00
 s    1  1.00
  0.3258400000D+00  0.1000000000D+01
 s    1  1.00
  0.1027410000D+00  0.1000000000D+01
 p    1  1.00
  0.7500000000D+00  0.1000000000D+01
  
   3 0
 s    3  1.00
  0.3386500000D+02  0.2549381454D-01
  0.5094790000D+01  0.1903731086D+00
  0.1158790000D+01  0.8521614860D+00
 s    1  1.00
  0.3258400000D+00  0.1000000000D+01
 s    1  1.00
  0.1027410000D+00  0.1000000000D+01
 p    1  1.00
  0.7500000000D+00  0.1000000000D+01


[MO]
 Sym=      1.1
 Ene=     -20.5413
 Spin= Alpha
 Occup=    2.000000
1 0.55142989300437
2 0.47167849779090
3 0.005566602791424
4 -0.000465163399012
5 0.0
6 0.0
7 -0.001785222703534
8 0.0
9 0.0
10 0.000617652285647
11 0.0
12 0.0
13 -0.000094627493840
14 0.000115378638858
15 -0.000097568773602
16 -0.000017809865256
17 0.0
18 0.0
19 0.0
20 0.000208611734633
21 0.000083188878415
22 0.000098883418917
23 0.0
24 -0.000070287076527
25 0.000010886900866
26 0.000208611734633
27 0.000083188878415
28 0.000098883418917
29 0.0
30 0.000070287076527
31 0.000010886900866
 Sym=      2.1
 Ene=      -1.3491
 Spin= Alpha
 Occup=    2.000000
1 -0.11335954008052
2 -0.18935716183248
3 0.53787734202066
4 0.37190453034270
5 0.0
6 0.0
7 -0.038031298875163
8 0.0
9 0.0
10 -0.063144952069231
11 0.0
12 0.0
13 -0.020779461758077
14 -0.008344511405654
15 0.005582217954593
16 0.002762293451062
17 0.0
18 0.0
19 0.0
20 0.096562575251075
21 0.081307884152275
22 -0.002674934843958
23 0.0
24 -0.023857744509215
25 0.014411959932230
26 0.096562575251075
27 0.081307884152275
28 -0.002674934843958
29 0.0
30 0.023857744509215
31 0.014411959932230
 Sym=      1.3
 Ene=      -0.7172
 Spin= Alpha
 Occup=    2.000000
1 0.0
2 0.0
3 0.0
4 0.0
5 0.0
6 0.22737906933377
7 0.0
8 0.0
9 0.34886177643786
10 0.0
11 0.0
12 0.21178432256879
13 0.0
14 0.0
15 0.0
16 0.0
17 0.0
18 0.0
19 -0.029327230309828
20 0.15126546470723
21 0.21225549282228
22 0.054487542087931
23 0.0
24 -0.018707187827560
25 0.025670992072110
26 -0.15126546470723
27 -0.21225549282228
28 -0.054487542087931
29 0.0
30 -0.018707187827560
31 -0.025670992072110
 Sym=      3.1
 Ene=      -0.5729
 Spin= Alpha
 Occup=    2.000000
1 -0.038140091407773
2 -0.064860195963195
3 0.19645676296038
4 0.33484860757838
5 0.0
6 0.0
7 0.25569174888801
8 0.0
9 0.0
10 0.37818685999637
11 0.0
12 0.0
13 0.33999194659651
14 0.012876260461819
15 0.004108841502906
16 -0.016985101964725
17 0.0
18 0.0
19 0.0
20 -0.087465322427823
21 -0.14600255731775
22 -0.027263581711757
23 0.0
24 0.029719094871178
25 0.009565658422439
26 -0.087465322427823
27 -0.14600255731775
28 -0.027263581711757
29 0.0
30 -0.029719094871178
31 0.009565658422439
 Sym=      1.2
 Ene=      -0.5007
 Spin= Alpha
 Occup=    2.000000
1 0.0
2 0.0
3 0.0
4 0.0
5 0.29169577958708
6 0.0
7 0.0
8 0.43668228215190
9 0.0
10 0.0
11 0.46587791986019
12 0.0
13 0.0
14 0.0
15 0.0
16 0.0
17 0.0
18 -0.017140433726895
19 0.0
20 0.0
21 0.0
22 0.0
23 0.031532231053076
24 0.0
25 0.0
26 0.0
27 0.0
28 0.0
29 0.031532231053076
30 0.0
31 0.0
 Sym=      4.1
 Ene=       0.1526
 Spin= Alpha
 Occup=    0.000000
1 0.033502774412743
2 0.054636206420617
3 -0.10269999619765
4 -0.85277767398893
5 0.0
6 0.0
7 0.071584829310529
8 0.0
9 0.0
10 0.11395098665751
11 0.0
12 0.0
13 0.19992339020385
14 0.005458389361682
15 -0.000897656279160
16 -0.004560733082522
17 0.0
18 0.0
19 0.0
20 0.034136692562013
21 -0.068275350006964
22 0.84442406503627
23 0.0
24 0.005125119368966
25 0.003810149311991
26 0.034136692562013
27 -0.068275350006964
28 0.84442406503627
29 0.0
30 -0.005125119368966
31 0.003810149311991
 Sym=      2.3
 Ene=       0.2186
 Spin= Alpha
 Occup=    0.000000
1 0.0
2 0.0
3 0.0
4 0.0
5 0.0
6 -0.12023558176796
7 0.0
8 0.0
9 -0.12746363328740
10 0.0
11 0.0
12 -0.49546846204888
13 0.0
14 0.0
15 0.0
16 0.0
17 0.0
18 0.0
19 0.005536347073435
20 0.023623950723280
21 -0.13011048323967
22 1.58003264200579
23 0.0
24 0.008852266193012
25 -0.008184796147323
26 -0.023623950723280
27 0.13011048323967
28 -1.58003264200579
29 0.0
30 0.008852266193012
31 0.008184796147323
 Sym=      3.3
 Ene=       0.5772
 Spin= Alpha
 Occup=    0.000000
1 0.0
2 0.0
3 0.0
4 0.0
5 0.0
6 -0.12034088101157
7 0.0
8 0.0
9 -0.18575151936054
10 0.0
11 0.0
12 -1.17096370323685
13 0.0
14 0.0
15 0.0
16 0.0
17 0.0
18 0.0
19 -0.013019112801206
20 0.079808487881725
21 1.48644332694320
22 -0.72178502017620
23 0.0
24 -0.026218367523446
25 -0.002722994522208
26 -0.079808487881725
27 -1.48644332694320
28 0.72178502017620
29 0.0
30 -0.026218367523446
31 0.002722994522208
 Sym=      5.1
 Ene=       0.6207
 Spin= Alpha
 Occup=    0.000000
1 0.033596398430518
2 0.059028160503980
3 -0.13501013503367
4 -1.48864351086998
5 0.0
6 0.0
7 0.096016751842057
8 0.0
9 0.0
10 0.18558723640717
11 0.0
12 0.0
13 1.08845243588811
14 -0.001401347367975
15 0.012669341909007
16 -0.011267994541032
17 0.0
18 0.0
19 0.0
20 0.062656139786292
21 1.85072049112778
22 -0.60057551252375
23 0.0
24 -0.036897899947010
25 0.044616782433333
26 0.062656139786292
27 1.85072049112778
28 -0.60057551252375
29 0.0
30 0.036897899947010
31 0.044616782433333
 Sym=      6.1
 Ene=       0.9975
 Spin= Alpha
 Occup=    0.000000
1 0.012908022412999
2 0.024137170768769
3 -0.046479313461175
4 -0.95095978794718
5 0.0
6 0.0
7 -0.23503529179479
8 0.0
9 0.0
10 -0.73590220059674
11 0.0
12 0.0
13 1.56770141518246
14 0.013062682828450
15 -0.017642502902240
16 0.004579820073790
17 0.0
18 0.0
19 0.0
20 0.033765172443348
21 0.57477408681026
22 0.11535569113542
23 0.0
24 -0.15198467165574
25 0.099404947030320
26 0.033765172443348
27 0.57477408681026
28 0.11535569113542
29 0.0
30 0.15198467165574
31 0.099404947030320
 Sym=      2.2
 Ene=       1.0031
 Spin= Alpha
 Occup=    0.000000
1 0.0
2 0.0
3 0.0
4 0.0
5 -0.23940065064007
6 0.0
7 0.0
8 -0.83600700579171
9 0.0
10 0.0
11 1.15633091133151
12 0.0
13 0.0
14 0.0
15 0.0
16 0.0
17 0.0
18 0.008395932229193
19 0.0
20 0.0
21 0.0
22 0.0
23 -0.027705935999050
24 0.0
25 0.0
26 0.0
27 0.0
28 0.0
29 -0.027705935999050
30 0.0
31 0.0
 Sym=      4.3
 Ene=       1.1114
 Spin= Alpha
 Occup=    0.000000
1 0.0
2 0.0
3 0.0
4 0.0
5 0.0
6 -0.24104373469096
7 0.0
8 0.0
9 -0.70500311083541
10 0.0
11 0.0
12 1.80249133437307
13 0.0
14 0.0
15 0.0
16 0.0
17 0.0
18 0.0
19 -0.031834561822120
20 -0.019633796280995
21 -0.34715742729309
22 -0.80113413684145
23 0.0
24 0.17438966089623
25 -0.14573686922626
26 0.019633796280995
27 0.34715742729309
28 0.80113413684145
29 0.0
30 0.17438966089623
31 0.14573686922626
 Sym=      7.1
 Ene=       1.3105
 Spin= Alpha
 Occup=    0.000000
1 0.099742144885474
2 0.20421057455226
3 -1.48624425176667
4 3.19029315009171
5 0.0
6 0.0
7 0.028033523241921
8 0.0
9 0.0
10 -0.17804711291712
11 0.0
12 0.0
13 -0.58780945789975
14 -0.035644153355895
15 0.007509487046463
16 0.028134666309432
17 0.0
18 0.0
19 0.0
20 0.008823176316279
21 -0.88715983984848
22 -0.35674459649923
23 0.0
24 0.18388188150411
25 -0.36902248761116
26 0.008823176316279
27 -0.88715983984848
28 -0.35674459649923
29 0.0
30 -0.18388188150411
31 -0.36902248761116
 Sym=      8.1
 Ene=       1.4982
 Spin= Alpha
 Occup=    0.000000
1 0.033436839991149
2 0.069325657992716
3 -0.58498105326561
4 2.05780709637902
5 0.0
6 0.0
7 -0.014848582031671
8 0.0
9 0.0
10 -0.12068367318919
11 0.0
12 0.0
13 -1.24349563704228
14 0.008602043423631
15 0.10786020474117
16 -0.11646224816480
17 0.0
18 0.0
19 0.0
20 0.084222989590991
21 -1.20386973648906
22 0.029170806553763
23 0.0
24 0.59810025153099
25 0.42787862345940
26 0.084222989590991
27 -1.20386973648906
28 0.029170806553763
29 0.0
30 -0.59810025153099
31 0.42787862345940
 Sym=      1.4
 Ene=       1.5159
 Spin= Alpha
 Occup=    0.000000
1 0.0
2 0.0
3 0.0
4 0.0
5 0.0
6 0.0
7 0.0
8 0.0
9 0.0
10 0.0
11 0.0
12 0.0
13 0.0
14 0.0
15 0.0
16 0.0
17 0.12196124442079
18 0.0
19 0.0
20 0.0
21 0.0
22 0.0
23 0.68970717097163
24 0.0
25 0.0
26 0.0
27 0.0
28 0.0
29 -0.68970717097163
30 0.0
31 0.0
 Sym=      3.2
 Ene=       1.7269
 Spin= Alpha
 Occup=    0.000000
1 0.0
2 0.0
3 0.0
4 0.0
5 -0.052895709199584
6 0.0
7 0.0
8 -0.075166004815832
9 0.0
10 0.0
11 -0.55154596862460
12 0.0
13 0.0
14 0.0
15 0.0
16 0.0
17 0.0
18 -0.14547252660755
19 0.0
20 0.0
21 0.0
22 0.0
23 0.77200363481833
24 0.0
25 0.0
26 0.0
27 0.0
28 0.0
29 0.77200363481833
30 0.0
31 0.0
 Sym=      5.3
 Ene=       1.9304
 Spin= Alpha
 Occup=    0.000000
1 0.0
2 0.0
3 0.0
4 0.0
5 0.0
6 0.015159020326107
7 0.0
8 0.0
9 0.027440614047279
10 0.0
11 0.0
12 -0.94917665735986
13 0.0
14 0.0
15 0.0
16 0.0
17 0.0
18 0.0
19 0.079138369255878
20 -0.19090963675993
21 0.78720686618616
22 -0.16050066878616
23 0.0
24 0.48082207938854
25 0.65140225161417
26 0.19090963675993
27 -0.78720686618616
28 0.16050066878616
29 0.0
30 0.48082207938854
31 -0.65140225161417
 Sym=      6.3
 Ene=       2.2775
 Spin= Alpha
 Occup=    0.000000
1 0.0
2 0.0
3 0.0
4 0.0
5 0.0
6 -0.17652923440688
7 0.0
8 0.0
9 -0.46802227132796
10 0.0
11 0.0
12 0.027122710124258
13 0.0
14 0.0
15 0.0
16 0.0
17 0.0
18 0.0
19 -0.25259647777358
20 0.71315272430564
21 -0.74249285967217
22 0.54210958094481
23 0.0
24 -0.24920973596560
25 0.46723893638014
26 -0.71315272430564
27 0.74249285967217
28 -0.54210958094481
29 0.0
30 -0.24920973596560
31 -0.46723893638014
 Sym=      9.1
 Ene=       2.3979
 Spin= Alpha
 Occup=    0.000000
1 0.024145672126665
2 0.042089218296263
3 -0.14352292425137
4 0.41808864832211
5 0.0
6 0.0
7 0.16064776291245
8 0.0
9 0.0
10 0.15931408607727
11 0.0
12 0.0
13 -0.32975161238524
14 -0.29203658445109
15 0.21558752480350
16 0.076449059647584
17 0.0
18 0.0
19 0.0
20 0.94232364131091
21 -1.34183713234568
22 0.43146922316129
23 0.0
24 -0.17345329870688
25 0.033163236898817
26 0.94232364131091
27 -1.34183713234568
28 0.43146922316129
29 0.0
30 0.17345329870688
31 0.033163236898817
 Sym=     10.1
 Ene=       2.6102
 Spin= Alpha
 Occup=    0.000000
1 -0.060073614402161
2 -0.14044319446701
3 1.00828707044194
4 1.83750121681104
5 0.0
6 0.0
7 -0.039618048029288
8 0.0
9 0.0
10 -0.72087252457080
11 0.0
12 0.0
13 -0.73333193421658
14 0.051514641213547
15 -0.004265487980461
16 -0.047249153233086
17 0.0
18 0.0
19 0.0
20 0.43167007018437
21 -1.90342322328069
22 0.21676424181066
23 0.0
24 0.96209379420516
25 -0.67890033115125
26 0.43167007018437
27 -1.90342322328069
28 0.21676424181066
29 0.0
30 -0.96209379420516
31 -0.67890033115125
 Sym=      7.3
 Ene=       2.7685
 Spin= Alpha
 Occup=    0.000000
1 0.0
2 0.0
3 0.0
4 0.0
5 0.0
6 -0.015072539640278
7 0.0
8 0.0
9 -0.97024657092601
10 0.0
11 0.0
12 -0.73230695628976
13 0.0
14 0.0
15 0.0
16 0.0
17 0.0
18 0.0
19 0.23827578174403
20 -0.72892168175987
21 2.13095571908555
22 -0.50209735349343
23 0.0
24 -0.95024439258064
25 0.68788968731885
26 0.72892168175987
27 -2.13095571908555
28 0.50209735349343
29 0.0
30 -0.95024439258064
31 -0.68788968731885
 Sym=      4.2
 Ene=       3.5053
 Spin= Alpha
 Occup=    0.000000
1 0.0
2 0.0
3 0.0
4 0.0
5 -0.023843967678486
6 0.0
7 0.0
8 0.009419975861296
9 0.0
10 0.0
11 -0.27523014015160
12 0.0
13 0.0
14 0.0
15 0.0
16 0.0
17 0.0
18 1.03733686665889
19 0.0
20 0.0
21 0.0
22 0.0
23 0.36683803195135
24 0.0
25 0.0
26 0.0
27 0.0
28 0.0
29 0.36683803195135
30 0.0
31 0.0
 Sym=      2.4
 Ene=       3.5721
 Spin= Alpha
 Occup=    0.000000
1 0.0
2 0.0
3 0.0
4 0.0
5 0.0
6 0.0
7 0.0
8 0.0
9 0.0
10 0.0
11 0.0
12 0.0
13 0.0
14 0.0
15 0.0
16 0.0
17 1.06006483682250
18 0.0
19 0.0
20 0.0
21 0.0
22 0.0
23 -0.35117598007695
24 0.0
25 0.0
26 0.0
27 0.0
28 0.0
29 0.35117598007695
30 0.0
31 0.0
 Sym=     11.1
 Ene=       3.7381
 Spin= Alpha
 Occup=    0.000000
1 -0.002617688656755
2 -0.005333992773463
3 -0.029349040434868
4 0.86146114310835
5 0.0
6 0.0
7 -0.059059450646967
8 0.0
9 0.0
10 -0.050537176566633
11 0.0
12 0.0
13 -0.67660965374564
14 -0.47285468601256
15 -0.61061768217224
16 1.08347236818480
17 0.0
18 0.0
19 0.0
20 -0.027082947670680
21 -0.57234248441655
22 0.028385274511074
23 0.0
24 0.42413036577785
25 0.23274538763284
26 -0.027082947670680
27 -0.57234248441655
28 0.028385274511074
29 0.0
30 -0.42413036577785
31 0.23274538763284
 Sym=     12.1
 Ene=       4.0353
 Spin= Alpha
 Occup=    0.000000
1 0.024613694976009
2 0.049670167481458
3 -0.18782966854535
4 -2.00080180099816
5 0.0
6 0.0
7 0.31727567400271
8 0.0
9 0.0
10 0.13208397404009
11 0.0
12 0.0
13 0.89592247547388
14 0.99799021997973
15 -0.94979700305574
16 -0.048193216923984
17 0.0
18 0.0
19 0.0
20 0.35224871774953
21 1.03747923501088
22 0.059507240954790
23 0.0
24 -0.56005828562466
25 0.48259671469718
26 0.35224871774953
27 1.03747923501088
28 0.059507240954790
29 0.0
30 0.56005828562466
31 0.48259671469718
 Sym=      8.3
 Ene=       4.2823
 Spin= Alpha
 Occup=    0.000000
1 0.0
2 0.0
3 0.0
4 0.0
5 0.0
6 -0.46764954694934
7 0.0
8 0.0
9 0.028051930382782
10 0.0
11 0.0
12 -0.92184902278203
13 0.0
14 0.0
15 0.0
16 0.0
17 0.0
18 0.0
19 1.14893937887238
20 0.44147747217730
21 0.48386929083972
22 0.24465247927416
23 0.0
24 -0.46732023999582
25 0.33994858305187
26 -0.44147747217730
27 -0.48386929083972
28 -0.24465247927416
29 0.0
30 -0.46732023999582
31 -0.33994858305187
 Sym=      5.2
 Ene=       5.3305
 Spin= Alpha
 Occup=    0.000000
1 0.0
2 0.0
3 0.0
4 0.0
5 1.27075925806833
6 0.0
7 0.0
8 -1.37564984817411
9 0.0
10 0.0
11 0.47597941036802
12 0.0
13 0.0
14 0.0
15 0.0
16 0.0
17 0.0
18 0.033345478853130
19 0.0
20 0.0
21 0.0
22 0.0
23 0.065955691427575
24 0.0
25 0.0
26 0.0
27 0.0
28 0.0
29 0.065955691427575
30 0.0
31 0.0
 Sym=     13.1
 Ene=       5.7620
 Spin= Alpha
 Occup=    0.000000
1 -0.024084722018513
2 -0.045614675161904
3 0.26313783793879
4 1.05995189969976
5 0.0
6 0.0
7 1.25924842611814
8 0.0
9 0.0
10 -1.73379566650689
11 0.0
12 0.0
13 0.078068919605362
14 -0.37370848998893
15 0.27604906060635
16 0.097659429382586
17 0.0
18 0.0
19 0.0
20 -0.30701882099557
21 -0.52193501455378
22 -0.014886476176508
23 0.0
24 0.48404226474913
25 -0.26710649885397
26 -0.30701882099557
27 -0.52193501455378
28 -0.014886476176508
29 0.0
30 -0.48404226474913
31 -0.26710649885397
 Sym=      9.3
 Ene=       6.2580
 Spin= Alpha
 Occup=    0.000000
1 0.0
2 0.0
3 0.0
4 0.0
5 0.0
6 -1.25457965873845
7 0.0
8 0.0
9 2.05654234738472
10 0.0
11 0.0
12 -0.13086031701370
13 0.0
14 0.0
15 0.0
16 0.0
17 0.0
18 0.0
19 -0.67850253143520
20 -0.39809674591418
21 -0.51208357224107
22 0.14557793180845
23 0.0
24 0.54698644312289
25 -0.47657312323558
26 0.39809674591418
27 0.51208357224107
28 -0.14557793180845
29 0.0
30 0.54698644312289
31 0.47657312323558
 Sym=     14.1
 Ene=      51.5750
 Spin= Alpha
 Occup=    0.000000
1 -2.24731788799047
2 2.33737785589828
3 -0.27406503482225
4 0.056461710893660
5 0.0
6 0.0
7 -0.019340035439386
8 0.0
9 0.0
10 0.077190082650107
11 0.0
12 0.0
13 0.015742065834485
14 0.026082175350703
15 -0.022712282983161
16 -0.003369892367542
17 0.0
18 0.0
19 0.0
20 0.008747278452608
21 0.077727429413925
22 -0.031125747802121
23 0.0
24 -0.065696718894122
25 0.048152991678118
26 0.008747278452608
27 0.077727429413925
28 -0.031125747802121
29 0.0
30 0.065696718894122
31 0.048152991678118
 [FREQ]
      0.00
      0.00
      0.00
      0.00
      0.00
      0.00
   1281.15
   2986.80
   3106.06
 [FR-COORD]
O          0.0000000000        0.0000000000        0.2165709980
H          0.0000000000        1.4150757614       -0.8602298972
H          0.0000000000       -1.4150757614       -0.8602298972
 [FR-NORM-COORD]
 Vibration                    1
         -0.00000000          0.06860144          0.01759973
          0.28307109         -0.18369349         -0.31395316
         -0.29763656         -0.18369349          0.34915261
 Vibration                    2
          0.00000000         -0.04538669          0.00639871
          0.45687498         -0.06899990         -0.02463254
          0.50948027         -0.06899990          0.03742995
 Vibration                    3
          0.25000469          0.00000000         -0.00000000
         -0.00000000          0.00000000          0.00000000
         -0.00000000          0.00000000         -0.00000000
 Vibration                    4
         -0.00000000          0.18558448         -0.02504990
          0.24028634          0.26293368          0.07659841
          0.00259095          0.26293368         -0.12669821
 Vibration                    5
         -0.00000000         -0.08949285          0.10665426
          0.33505119          0.06929381          0.31532344
         -0.33292157          0.06929381         -0.10201492
 Vibration                    6
          0.00000000          0.06848923          0.19385116
         -0.19407092          0.01480748          0.12330540
          0.19370900          0.01480748          0.26439691
 Vibration                    7
         -0.00000000         -0.00000000         -0.08829531
         -0.00000000          0.30707694          0.35071300
          0.00000000         -0.30707694          0.35071300
 Vibration                    8
          0.00000000         -0.00000000          0.06909912
         -0.00000000          0.39238491         -0.27446487
          0.00000000         -0.39238491         -0.27446487
 Vibration                    9
         -0.00000000         -0.09270864         -0.00000000
          0.00000000          0.36824294         -0.28021420
         -0.00000000          0.36824294          0.28021420
