
 Working directory              : /tmp/lme/molpro.1RylxeGtRp/
 Global scratch directory       : /tmp/lme/molpro.1RylxeGtRp/
 Wavefunction directory         : /home/lme/wfu/
 Main file repository           : /tmp/lme/molpro.1RylxeGtRp/

 id        : liedlgroup

 Nodes     nprocs
 sv1-c724     1
 GA implementation: MPI file
 GA implementation (serial work in mppx): MPI file

 Using customized tuning parameters: mindgm=1; mindgv=20; mindgc=4; mindgr=1; noblas=0; minvec=7
 default implementation of scratch files=df  


 Variables initialized (1042), CPU time= 0.01 sec
 
                     orient,mass
                     geometry=initial.xyz
 Including file /home/lme/Theoretische_Chemie/Nomodeco/deuterium_calculations/test_g2/H2O.molpro/run/H2O_2.molpro/initial.xyz
                     mass, H2=2.014; mass, H3=2.014;                             ! Set custom mass for hydrogen
                     basis=6-311g(d,p)
                     {hf
                     start, atden}
                     optg;
                     {frequencies, symm=auto, print=0, analytical}
                     put, molden, H2O.molden
 Commands initialized (847), CPU time= 0.00 sec, 718 directives.
 Default parameters read. Elapsed time= 0.06 sec

 Checking input...
 Passed
1


                                         ***  PROGRAM SYSTEM MOLPRO  ***
                                       Copyright, TTI GmbH Stuttgart, 2015
                                    Version 2024.1 linked Wed Jan 31 11:42:09 2024


 **********************************************************************************************************************************
 LABEL *                                                                                                                                                                 
  (6 PROC) 64 bit serial version                                                         DATE: 30-Sep-24          TIME: 10:51:49  
 **********************************************************************************************************************************

 SHA1:             675817fde4514a4a933b69e420913a90cee4ef91
 **********************************************************************************************************************************

 Memory per process:        32 MW
 Total memory per node:     32 MW

 GA preallocation disabled
 GA check disabled

 Variable memory set to 32.0 MW

 ZCENTRE=MASS


 Geometry recognized as XYZ


 SETTING MASS FOR H2   (Z=  1)   TO   2.014

 SETTING MASS FOR H3   (Z=  1)   TO   2.014
 SETTING BASIS          =    6-311G(D,P)


 Recomputing integrals since basis changed


 Using spherical harmonics

 Library entry O      S 6-311G               selected for orbital group  1
 Library entry O      P 6-311G               selected for orbital group  1
 Library entry O      D 6-311G*              selected for orbital group  1
 Library entry H      S 6-311G               selected for orbital group  2
 Library entry H      P 6-311G**             selected for orbital group  2


 PROGRAM * SEWARD (Integral evaluation for generally contracted gaussian basis sets)     Author: Roland Lindh, 1990

 Geometry written to block  1 of record 700

 Orientation using atomic masses  
 Molecule type: Asymmetric top,     Order of principal axis = 2
 Symmetry elements: X,Y
 Rotational constants:     144.7912903    441.6914415    215.4026311 GHz  (calculated with average atomic masses)

 Point group  C2v 



 ATOMIC COORDINATES

 NR  ATOM    CHARGE       X              Y              Z

   1  O1      8.00    0.000000000    0.000000000    0.226635828
   2  H2      1.00    0.000000000    1.442238978   -0.900207860
   3  H3      1.00    0.000000000   -1.442238978   -0.900207860

 Bond lengths in Bohr (Angstrom)

 1-2  1.830254072  1-3  1.830254072
     ( 0.968528745)     ( 0.968528745)

 Bond angles

  2-1-3  103.99787336

 NUCLEAR CHARGE:                   10
 NUMBER OF PRIMITIVE AOS:          48
 NUMBER OF SYMMETRY AOS:           47
 NUMBER OF CONTRACTIONS:           30   (   14A1  +    5B1  +    9B2  +    2A2  )
 NUMBER OF INNER CORE ORBITALS:     0   (    0A1  +    0B1  +    0B2  +    0A2  )
 NUMBER OF OUTER CORE ORBITALS:     1   (    1A1  +    0B1  +    0B2  +    0A2  )
 NUMBER OF VALENCE ORBITALS:        6   (    3A1  +    1B1  +    2B2  +    0A2  )


 NUCLEAR REPULSION ENERGY    9.08863887

 Eigenvalues of metric

         1 0.186E-01 0.903E-01 0.114E+00 0.149E+00 0.293E+00 0.449E+00 0.607E+00 0.825E+00
         2 0.215E+00 0.461E+00 0.909E+00 0.119E+01 0.227E+01
         3 0.424E-01 0.995E-01 0.128E+00 0.396E+00 0.560E+00 0.848E+00 0.123E+01 0.155E+01
         4 0.660E+00 0.130E+01


 Contracted 2-electron integrals neglected if value below      1.0D-11
 AO integral compression algorithm  1   Integral accuracy      1.0D-11

     0.524 MB (compressed) written to integral file ( 74.2%)


 NUMBER OF SORTED TWO-ELECTRON INTEGRALS:      32916.     BUFFER LENGTH:  32768
 NUMBER OF SEGMENTS:   1  SEGMENT LENGTH:      32916      RECORD LENGTH: 524288

 Memory used in sort:       0.59 MW

 SORT1 READ       47172. AND WROTE       30106. INTEGRALS IN      1 RECORDS. CPU TIME:     0.00 SEC, REAL TIME:     0.00 SEC
 SORT2 READ       30106. AND WROTE       32916. INTEGRALS IN      2 RECORDS. CPU TIME:     0.01 SEC, REAL TIME:     0.01 SEC

 FILE SIZES:   FILE 1:    30.6 MBYTE,  FILE 4:     4.3 MBYTE,   TOTAL:     34.8 MBYTE

 OPERATOR DM      FOR CENTER  0  COORDINATES:    0.000000    0.000000    0.000000


 **********************************************************************************************************************************
 DATASETS  * FILE   NREC   LENGTH (MB)   RECORD NAMES
              1      19       28.81       500      610      700      900      950      970     1000      129      960     1100   
                                          VAR    BASINP    GEOM    SYMINP    ZMAT    AOBASIS   BASIS     P2S    ABASIS      S 
                                         1400     1410     1200     1210     1080     1600     1650     1300     1700   
                                           T        V       H0       H01     AOSYM     SMH    MOLCAS    ERIS     OPER   

 PROGRAMS   *        TOTAL       INT
 CPU TIMES  *         0.21      0.11
 REAL TIME  *         0.30 SEC
 DISK USED  *        33.55 MB
 **********************************************************************************************************************************


 Program * Restricted Hartree-Fock

 Orbital guess generated from atomic densities.

 Initial occupancy:   3   1   1   0

 NELEC=   10   SYM=1   MS2= 0   THRE=1.0D-08   THRD=1.0D-06   THRG=1.0D-06  HFMA2=F  DIIS_START=2   DIIS_MAX=10   DIIS_INCORE=F

 Level shifts:    0.00 (CLOSED)    0.00 (OPEN)    0.30 (GAP_MIN)

 ITER           ETOT              DE          GRAD        DDIFF     DIIS  NEXP   TIME(IT)  TIME(TOT)  DIAG
   1      -76.00571576     -76.00571576     0.00D+00     0.15D+00     0     0       0.00      0.00    start
   2      -76.03561144      -0.02989568     0.33D-01     0.24D-01     1     0       0.00      0.00    diag
   3      -76.04519246      -0.00958101     0.19D-01     0.82D-02     2     0       0.00      0.00    diag
   4      -76.04540947      -0.00021701     0.19D-02     0.15D-02     3     0       0.00      0.00    diag
   5      -76.04543118      -0.00002171     0.54D-03     0.63D-03     4     0       0.00      0.00    diag
   6      -76.04543192      -0.00000073     0.87D-04     0.11D-03     5     0       0.00      0.00    diag
   7      -76.04543194      -0.00000002     0.15D-04     0.19D-04     6     0       0.00      0.00    diag
   8      -76.04543194      -0.00000000     0.17D-05     0.24D-05     7     0       0.01      0.01    fixocc
   9      -76.04543194      -0.00000000     0.17D-06     0.29D-06     8     0       0.00      0.01    diag
  10      -76.04543194      -0.00000000     0.33D-07     0.26D-07     0     0       0.00      0.01    diag/orth

 Final occupancy:   3   1   1   0

 !RHF STATE 1.1 Energy                -76.045431938764
  RHF One-electron energy            -122.962873297900
  RHF Two-electron energy              37.828802485194
  RHF Kinetic energy                   76.016332446384
  RHF Nuclear energy                    9.088638873942
  RHF Virial quotient                  -1.000382805792

 !RHF STATE 1.1 Dipole moment           0.00000000     0.00000000    -0.85901450
 Dipole moment /Debye                   0.00000000     0.00000000    -2.18339709

 Orbital energies:

           1.1          2.1          3.1          4.1          5.1
    -20.547236    -1.336029    -0.570800     0.148681     0.608254

           1.2          2.2          3.2
     -0.499139     1.003919     1.711430

           1.3          2.3          3.3
     -0.699431     0.215811     0.560131

           1.4          2.4
      1.514025     3.538366


 HOMO      1.2    -0.499139 =     -13.5823eV
 LUMO      4.1     0.148681 =       4.0458eV
 LUMO-HOMO         0.647820 =      17.6281eV

 Orbitals saved in record  2100.2


 **********************************************************************************************************************************
 DATASETS  * FILE   NREC   LENGTH (MB)   RECORD NAMES
              1      19       28.81       500      610      700      900      950      970     1000      129      960     1100   
                                          VAR    BASINP    GEOM    SYMINP    ZMAT    AOBASIS   BASIS     P2S    ABASIS      S 
                                         1400     1410     1200     1210     1080     1600     1650     1300     1700   
                                           T        V       H0       H01     AOSYM     SMH    MOLCAS    ERIS     OPER   

              2       4        0.41       700     1000      520     2100   
                                         GEOM     BASIS   MCVARS     RHF  

 PROGRAMS   *        TOTAL    HF-SCF       INT
 CPU TIMES  *         0.22      0.01      0.11
 REAL TIME  *         0.31 SEC
 DISK USED  *        33.55 MB
 **********************************************************************************************************************************


 PROGRAM * OPT (Geometry optimization)     Authors: F. Eckert and H.-J. Werner


 BFGS update of hessian

 *** Long output written to logfile /home/lme/Theoretische_Chemie/Nomodeco/deuterium_calculations/test_g2/H2O.molpro/run/H2O_2.molpro/H2O_2.log ***


 Geometry optimization using default procedure for command HF-SCF

 Geometry written to block  1 of record 700

 PQS Optimization using delocalized internal coordinates

 Point group c2v. Number of degrees of freedom:    2

 ITER.   ENERGY(OLD)    ENERGY(NEW)      DE          GRADMAX     GRADNORM    GRADRMS     STEPMAX     STEPLEN     STEPRMS   CPU-time
   1   -76.04543194   -76.04698490    -0.00155296  0.03363663  0.04111605  0.02907344  0.06615145  0.07664742  0.05419791      0.06
   2   -76.04698490   -76.04701179    -0.00002689  0.00372188  0.00372472  0.00263378  0.01563981  0.01817320  0.01285040      0.13
   3   -76.04701179   -76.04701203    -0.00000024  0.00034271  0.00034371  0.00024304  0.00133313  0.00156878  0.00110929      0.18
   4   -76.04701203   -76.04701203    -0.00000000  0.00000329  0.00000332  0.00000234  0.00001161  0.00001287  0.00000910      0.26

 END OF GEOMETRY OPTIMIZATION.

 Geometry written to block  1 of record 700

 Recomputing wavefunction for reoriented structure

 Current geometry (xyz format, in Angstrom)

    3
 HF-SCF000/6-311G(D,P)  ENERGY=-76.04701203
 O          0.0000000000        0.0000000000        0.1146044367
 H          0.0000000000        0.7488258446       -0.4552140578
 H          0.0000000000       -0.7488258446       -0.4552140578

 **********************************************************************************************************************************


 **********************************************************************************************************************************
 DATASETS  * FILE   NREC   LENGTH (MB)   RECORD NAMES
              1      19       28.81       500      610      700      900      950      970     1000      129      960     1100   
                                          VAR    BASINP    GEOM    SYMINP    ZMAT    AOBASIS   BASIS     P2S    ABASIS      S 
                                         1400     1410     1200     1210     1080     1600     1650     1300     1700   
                                           T        V       H0       H01     AOSYM     SMH    MOLCAS    ERIS     OPER   

              2       4        0.41       700     1000      520     2100   
                                         GEOM     BASIS   MCVARS     RHF  

 PROGRAMS   *        TOTAL      OPTG    HF-SCF       INT
 CPU TIMES  *         0.51      0.28      0.01      0.11
 REAL TIME  *         0.77 SEC
 DISK USED  *        33.90 MB
 **********************************************************************************************************************************


 PROGRAM * HESSIAN

 PROGRAM * MCKINLEY (Hessian of the energy)     Author: A. Bernhardsson, R. Lindh

 Orbitals from record         2100.2

 Number of closed-shell orbitals:  5 (  3  1  1  0 )
 Number of occupied orbitals:      5 (  3  1  1  0 )

 Number of electrons= 10     Singlet     Space symmetry=1      Wavefunction type: CLOSED          


 McKinley needed      0.09 seconds of CPU time

 Entering CPHF calculation

 CPHF needed  64 iterations for  9 perturbations.  Total CPU time:    0.02 sec


 HF-SCF hessian saved to record  5300.2

 PROGRAM * FREQUENCIES (Calculation of harmonic vibrational spectra for HF-SCF)


 Permanent Dipole Moment [debye]
     1-   3    0.000000    0.000000    0.000000

 Dipole Moment Norm    0.0000000 [debye]

 Dipole Moment Derivatives [debye/ang]
              1             2             3             4             5             6             7             8
    1    0.00000000    0.00000000    0.00000000    0.00000000    0.00000000    0.00000000    0.00000000    0.00000000
    2    0.00000000    0.00000000    0.00000000    0.00000000    0.00000000    0.00000000    0.00000000    0.00000000
    3    0.00000000    0.00000000    0.00000000    0.00000000    0.00000000    0.00000000    0.00000000    0.00000000
              9
    1    0.00000000
    2    0.00000000
    3    0.00000000

 Projecting out rotations and translations

 Force Constants (Second Derivatives of the Energy) in [a.u.]
                             O1X1        O1Y1        O1Z1        H2X2        H2Y2    
           O1X1         -0.0000000
           O1Y1          0.0000000   0.8032677
           O1Z1          0.0000000   0.0000000   0.5365844
           H2X2         -0.0000000   0.0000000   0.0000000  -0.0000000
           H2Y2          0.0000000  -0.4016339   0.2406850   0.0000000   0.4354122
           H2Z2          0.0000000   0.3056230  -0.2682922   0.0000000  -0.2731540
           H3X3         -0.0000000   0.0000000   0.0000000  -0.0000000   0.0000000
           H3Y3          0.0000000  -0.4016339  -0.2406850   0.0000000  -0.0337783
           H3Z3          0.0000000  -0.3056230  -0.2682922   0.0000000   0.0324690
                             H2Z2        H3X3        H3Y3        H3Z3    
           H2Z2          0.2504279
           H3X3          0.0000000  -0.0000000
           H3Y3         -0.0324690   0.0000000   0.4354122
           H3Z3          0.0178643   0.0000000   0.2731540   0.2504279


 Atomic Masses
     1-   3   15.999400    2.014000    2.014000

 Mass weighted Second Derivative Matrix
                             O1X1        O1Y1        O1Z1        H2X2        H2Y2    
           O1X1         -0.0000000
           O1Y1          0.0000000   0.0502061
           O1Z1          0.0000000   0.0000000   0.0335378
           H2X2         -0.0000000   0.0000000   0.0000000  -0.0000000
           H2Y2          0.0000000  -0.0707536   0.0424002   0.0000000   0.2161928
           H2Z2          0.0000000   0.0538399  -0.0472636   0.0000000  -0.1356276
           H3X3         -0.0000000   0.0000000   0.0000000  -0.0000000   0.0000000
           H3Y3          0.0000000  -0.0707536  -0.0424002   0.0000000  -0.0167718
           H3Z3          0.0000000  -0.0538399  -0.0472636   0.0000000   0.0161216
                             H2Z2        H3X3        H3Y3        H3Z3    
           H2Z2          0.1243435
           H3X3          0.0000000  -0.0000000
           H3Y3         -0.0161216   0.0000000   0.2161928
           H3Z3          0.0088701   0.0000000   0.1356276   0.1243435


 Mass Weighted 2nd Derivative Matrix Eigenvalues
     1-   9    0.000000    0.000000    0.000000    0.000000    0.000000    0.000000    0.062114    0.337601    0.365101

 Mass Weighted 2nd Derivative Matrix Eigenvectors
              1             2             3             4             5             6             7             8
    1    0.00000000    0.00000000    1.00000000    0.00000000    0.00000000    0.00000000    0.00000000    0.00000000
    2    0.27440062   -0.18154337    0.00000000    0.74232399   -0.35796470    0.27395177    0.00000000    0.00000000
    3    0.07039759    0.02559435    0.00000000   -0.10019772    0.42660904    0.77539009   -0.35317461    0.27639130
    4    0.40172166    0.64837627    0.00000000    0.34100348    0.47548946   -0.27541665    0.00000000    0.00000000
    5   -0.26068948   -0.09792153    0.00000000    0.37314357    0.09833864    0.02101411    0.43578967    0.55685489
    6   -0.44554809   -0.03495738    0.00000000    0.10870499    0.44749274    0.17498944    0.49771599   -0.38950810
    7   -0.42239232    0.72303130    0.00000000    0.00367696   -0.47246720    0.27490304    0.00000000    0.00000000
    8   -0.26068948   -0.09792153    0.00000000    0.37314357    0.09833864    0.02101411   -0.43578967   -0.55685489
    9    0.49550157    0.05311889    0.00000000   -0.17980435   -0.14477495    0.37522012    0.49771599   -0.38950810
              9
    1    0.00000000
    2   -0.37082759
    3    0.00000000
    4    0.00000000
    5    0.52259369
    6   -0.39766730
    7    0.00000000
    8    0.52259369
    9    0.39766730

   Low Vibration      Wavenumber
        Nr             [1/cm] 
        1                0.00
        2                0.00
        3                0.00
        4                0.00
        5                0.00
        6                0.00

     Vibration        Wavenumber
        Nr             [1/cm] 
        1             1281.15
        2             2986.80
        3             3106.06

 FREQUENCIES * CALCULATION OF NORMAL MODES FOR HF-SCF


 Atomic Coordinates

  Nr  Atom  Charge       X              Y              Z

   1   O1    8.00    0.000000000    0.000000000    0.216570998
   2   H2    1.00    0.000000000    1.415075761   -0.860229897
   3   H3    1.00    0.000000000   -1.415075761   -0.860229897

 Gradient norm at reference geometry: 0.30071D-05

 Normal Modes

                              1 A1        2 A1        3 B2 
 Wavenumbers [cm-1]         1281.15     2986.80     3106.06
 Intensities [km/mol]          0.00        0.00        0.00
 Intensities [relative]        0.00        0.00        0.00
           O1X1            -0.00000     0.00000    -0.00000
           O1Y1            -0.00000    -0.00000    -0.09271
           O1Z1            -0.08830     0.06910    -0.00000
           H2X2            -0.00000    -0.00000     0.00000
           H2Y2             0.30708     0.39238     0.36824
           H2Z2             0.35071    -0.27446    -0.28021
           H3X3             0.00000     0.00000    -0.00000
           H3Y3            -0.30708    -0.39238     0.36824
           H3Z3             0.35071    -0.27446     0.28021


 Normal Modes of low/zero frequencies

                                  1           2           3           4           5
 Wavenumbers [cm-1]            0.00        0.00        0.00        0.00        0.00
 Intensities [km/mol]          0.00        0.00        0.00        0.00        0.00
 Intensities [relative]        0.00        0.00        0.00        0.00        0.00
           O1X1            -0.00000     0.00000     0.25000    -0.00000    -0.00000
           O1Y1             0.06860    -0.04539     0.00000     0.18558    -0.08949
           O1Z1             0.01760     0.00640    -0.00000    -0.02505     0.10665
           H2X2             0.28307     0.45687    -0.00000     0.24029     0.33505
           H2Y2            -0.18369    -0.06900     0.00000     0.26293     0.06929
           H2Z2            -0.31395    -0.02463     0.00000     0.07660     0.31532
           H3X3            -0.29764     0.50948    -0.00000     0.00259    -0.33292
           H3Y3            -0.18369    -0.06900     0.00000     0.26293     0.06929
           H3Z3             0.34915     0.03743    -0.00000    -0.12670    -0.10201

                                  6
 Wavenumbers [cm-1]            0.00
 Intensities [km/mol]          0.00
 Intensities [relative]        0.00
           O1X1             0.00000
           O1Y1             0.06849
           O1Z1             0.19385
           H2X2            -0.19407
           H2Y2             0.01481
           H2Z2             0.12331
           H3X3             0.19371
           H3Y3             0.01481
           H3Z3             0.26440


 Frequencies dumped to record   5400.2
 Frequency information read from record  5400.2

 Zero point energy:  0.01679925 [H]     3687.01 [1/CM]       44.11 [KJ/MOL]


 **********************************************************************************************************************************
 DATASETS  * FILE   NREC   LENGTH (MB)   RECORD NAMES
              1      19       28.81       500      610      700      900      950      970     1000      129      960     1100   
                                          VAR    BASINP    GEOM    SYMINP    ZMAT    AOBASIS   BASIS     P2S    ABASIS      S 
                                         1400     1410     1200     1210     1080     1600     1650     1300     1700   
                                           T        V       H0       H01     AOSYM     SMH    MOLCAS    ERIS     OPER   

              2       7        0.42       700     1000      520     2100     5300     5450     5400   
                                         GEOM     BASIS   MCVARS     RHF     HESS     NMOD     FREQ   

              4       5        0.10      4100     4000     4200     4300     4400   

 PROGRAMS   *        TOTAL      FREQ      OPTG    HF-SCF       INT
 CPU TIMES  *         0.62      0.11      0.28      0.01      0.11
 REAL TIME  *         0.90 SEC
 DISK USED  *        33.90 MB
 **********************************************************************************************************************************

 Dump information in style MOLDEN to h2o.molden                                                                      

 Molecular orbitals read from record     2100.2  Type=RHF/CANONICAL  
 Occupation numbers read from record     2100.2  Type=RHF/RHF  
 Orbital energies read from record       2100.2  Type=RHF/CANONICAL  
 Redundancy group numbers read from rec  2100.2  Type=RHF/RHF  

 DUMP ORBITAL  1.1 AS ORBITAL    1  occ=    2.0000  eig=  -20.5413  GROUP=   2
 DUMP ORBITAL  2.1 AS ORBITAL    2  occ=    2.0000  eig=   -1.3491  GROUP=   2
 DUMP ORBITAL  1.3 AS ORBITAL    3  occ=    2.0000  eig=   -0.7172  GROUP=   2
 DUMP ORBITAL  3.1 AS ORBITAL    4  occ=    2.0000  eig=   -0.5729  GROUP=   2
 DUMP ORBITAL  1.2 AS ORBITAL    5  occ=    2.0000  eig=   -0.5007  GROUP=   2

 Total charge:      10.000000
 Frequency information read from record  5400.2

 **********************************************************************************************************************************

 HF/6-311G(D,P)//HF/6-311G(D,P) energy=    -76.047012027794

    OPTG(HF-SCF)          HF-SCF
    -76.04701203    -76.04543194
 **********************************************************************************************************************************
 Molpro calculation terminated
