
 Working directory              : /tmp/lme/molpro.mxX0AiHECl/
 Global scratch directory       : /tmp/lme/molpro.mxX0AiHECl/
 Wavefunction directory         : /home/lme/wfu/
 Main file repository           : /tmp/lme/molpro.mxX0AiHECl/

 id        : liedlgroup

 Nodes     nprocs
 sv1-c724     1
 GA implementation: MPI file
 GA implementation (serial work in mppx): MPI file

 Using customized tuning parameters: mindgm=1; mindgv=20; mindgc=4; mindgr=1; noblas=0; minvec=7
 default implementation of scratch files=df  


 Variables initialized (1042), CPU time= 0.01 sec
 
                orient,mass
                geometry=initial.xyz
 Including file /home/lme/Theoretische_Chemie/Nomodeco/ase_integration/Ammonia_dimer.molpro/run/Ammonia_dimer_2.molpro/initial.xyz
                mass, iso
                basis=6-311g(d,p)
                {hf
                start, atden}
                optg;
                {frequencies, symm=auto, print=0, analytical}
                put, molden, Ammonia_dimer.molden
 Commands initialized (847), CPU time= 0.00 sec, 718 directives.
 Default parameters read. Elapsed time= 0.06 sec

 Checking input...
 Passed
1


                                         ***  PROGRAM SYSTEM MOLPRO  ***
                                       Copyright, TTI GmbH Stuttgart, 2015
                                    Version 2024.1 linked Wed Jan 31 11:42:09 2024


 **********************************************************************************************************************************
 LABEL *                                                                                                                                                                 
  (6 PROC) 64 bit serial version                                                         DATE: 18-Sep-24          TIME: 12:34:46  
 **********************************************************************************************************************************

 SHA1:             675817fde4514a4a933b69e420913a90cee4ef91
 **********************************************************************************************************************************

 Memory per process:        32 MW
 Total memory per node:     32 MW

 GA preallocation disabled
 GA check disabled

 Variable memory set to 32.0 MW

 ZCENTRE=MASS


 Geometry recognized as XYZ



 Using masses of most abundant isotopes

 **********************************************************************************************************************************
 SETTING BASIS          =    6-311G(D,P)


 Recomputing integrals since basis changed


 Using spherical harmonics

 Library entry N      S 6-311G               selected for orbital group  1
 Library entry N      P 6-311G               selected for orbital group  1
 Library entry N      D 6-311G*              selected for orbital group  1
 Library entry H      S 6-311G               selected for orbital group  2
 Library entry H      P 6-311G**             selected for orbital group  2


 PROGRAM * SEWARD (Integral evaluation for generally contracted gaussian basis sets)     Author: Roland Lindh, 1990

 Geometry written to block  1 of record 700

 Orientation using atomic masses  
 Molecule type: Asymmetric top,     Order of principal axis = 2
 Symmetry elements: Z,XY
 Rotational constants:       5.4527777    138.4434625      5.5506206 GHz

 Point group  C2h 



 ATOMIC COORDINATES

 NR  ATOM    CHARGE       X              Y              Z

   1  N       7.00    0.096561277   -2.983082240    0.000000000
   2  N       7.00   -0.096561277    2.983082240    0.000000000
   3  H       1.00   -0.246155661   -4.079918629   -1.529856130
   4  H       1.00   -0.246155661   -4.079918629    1.529856130
   5  H       1.00    0.246155661    4.079918629   -1.529856130
   6  H       1.00    0.246155661    4.079918629    1.529856130
   7  H       1.00   -1.239236805   -1.608796342    0.000000000
   8  H       1.00    1.239236805    1.608796342    0.000000000

 Bond lengths in Bohr (Angstrom)

 1-3  1.913364770  1-4  1.913364770  1-7  1.916512000  2-5  1.913364770  2-6  1.913364770
     ( 1.012509032)     ( 1.012509032)     ( 1.014174475)     ( 1.012509032)     ( 1.012509032)

 2-8  1.916512000
     ( 1.014174475)

 Bond angles

  3-1-4  106.17682966   3-1-7  106.63180830   4-1-7  106.63180830   5-2-6  106.17682966

  5-2-8  106.63180830   6-2-8  106.63180830

 NUCLEAR CHARGE:                   20
 NUMBER OF PRIMITIVE AOS:         112
 NUMBER OF SYMMETRY AOS:          110
 NUMBER OF CONTRACTIONS:           72   (   24Ag  +   12Au  +   24Bu  +   12Bg  )
 NUMBER OF INNER CORE ORBITALS:     0   (    0Ag  +    0Au  +    0Bu  +    0Bg  )
 NUMBER OF OUTER CORE ORBITALS:     2   (    1Ag  +    0Au  +    1Bu  +    0Bg  )
 NUMBER OF VALENCE ORBITALS:       14   (    5Ag  +    2Au  +    5Bu  +    2Bg  )


 NUCLEAR REPULSION ENERGY   40.31424002

 Eigenvalues of metric

         1 0.105E-01 0.342E-01 0.569E-01 0.813E-01 0.104E+00 0.113E+00 0.152E+00 0.264E+00
         2 0.371E-01 0.775E-01 0.112E+00 0.407E+00 0.414E+00 0.563E+00 0.796E+00 0.868E+00
         3 0.112E-01 0.320E-01 0.643E-01 0.803E-01 0.960E-01 0.112E+00 0.150E+00 0.226E+00
         4 0.332E-01 0.745E-01 0.104E+00 0.395E+00 0.416E+00 0.558E+00 0.795E+00 0.867E+00


 Contracted 2-electron integrals neglected if value below      1.0D-11
 AO integral compression algorithm  1   Integral accuracy      1.0D-11

     6.554 MB (compressed) written to integral file ( 61.4%)


 NUMBER OF SORTED TWO-ELECTRON INTEGRALS:     914346.     BUFFER LENGTH:  32768
 NUMBER OF SEGMENTS:   1  SEGMENT LENGTH:     914346      RECORD LENGTH: 524288

 Memory used in sort:       1.47 MW

 SORT1 READ     1350512. AND WROTE      914346. INTEGRALS IN      3 RECORDS. CPU TIME:     0.02 SEC, REAL TIME:     0.03 SEC
 SORT2 READ      914346. AND WROTE      914346. INTEGRALS IN     25 RECORDS. CPU TIME:     0.05 SEC, REAL TIME:     0.05 SEC

 FILE SIZES:   FILE 1:    36.8 MBYTE,  FILE 4:    12.6 MBYTE,   TOTAL:     49.4 MBYTE

 OPERATOR DM      FOR CENTER  0  COORDINATES:    0.000000    0.000000    0.000000


 **********************************************************************************************************************************
 DATASETS  * FILE   NREC   LENGTH (MB)   RECORD NAMES
              1      19       33.03       500      610      700      900      950      970     1000      129      960     1100   
                                          VAR    BASINP    GEOM    SYMINP    ZMAT    AOBASIS   BASIS     P2S    ABASIS      S 
                                         1400     1410     1200     1210     1080     1600     1650     1300     1700   
                                           T        V       H0       H01     AOSYM     SMH    MOLCAS    ERIS     OPER   

 PROGRAMS   *        TOTAL       INT
 CPU TIMES  *         0.42      0.31
 REAL TIME  *         0.46 SEC
 DISK USED  *        47.59 MB
 **********************************************************************************************************************************


 Program * Restricted Hartree-Fock

 Orbital guess generated from atomic densities.

 Initial occupancy:   4   1   4   1

 NELEC=   20   SYM=1   MS2= 0   THRE=1.0D-08   THRD=1.0D-06   THRG=1.0D-06  HFMA2=F  DIIS_START=2   DIIS_MAX=10   DIIS_INCORE=F

 Level shifts:    0.00 (CLOSED)    0.00 (OPEN)    0.30 (GAP_MIN)

 ITER           ETOT              DE          GRAD        DDIFF     DIIS  NEXP   TIME(IT)  TIME(TOT)  DIAG
   1     -112.37531845    -112.37531845     0.00D+00     0.87D-01     0     0       0.00      0.02    start
   2     -112.41621428      -0.04089583     0.17D-01     0.11D-01     1     0       0.00      0.02    diag
   3     -112.42451410      -0.00829982     0.77D-02     0.39D-02     2     0       0.01      0.03    diag
   4     -112.42495065      -0.00043655     0.13D-02     0.12D-02     3     0       0.00      0.03    diag
   5     -112.42497400      -0.00002335     0.27D-03     0.34D-03     4     0       0.00      0.03    diag
   6     -112.42497487      -0.00000087     0.44D-04     0.79D-04     5     0       0.01      0.04    diag
   7     -112.42497491      -0.00000004     0.87D-05     0.14D-04     6     0       0.00      0.04    diag
   8     -112.42497492      -0.00000000     0.22D-05     0.37D-05     7     0       0.00      0.04    fixocc
   9     -112.42497492      -0.00000000     0.51D-06     0.12D-05     8     0       0.01      0.05    diag
  10     -112.42497492      -0.00000000     0.11D-06     0.27D-06     9     0       0.00      0.05    diag/orth
  11     -112.42497492      -0.00000000     0.18D-07     0.24D-07     0     0       0.00      0.05    diag

 Final occupancy:   4   1   4   1

 !RHF STATE 1.1 Energy               -112.424974916686
  RHF One-electron energy            -232.247637967129
  RHF Two-electron energy              79.508423035165
  RHF Kinetic energy                  112.377313434514
  RHF Nuclear energy                   40.314240015278
  RHF Virial quotient                  -1.000424120142

 !RHF STATE 1.1 Dipole moment           0.00000000     0.00000000     0.00000000
 Dipole moment /Debye                   0.00000000     0.00000000     0.00000000

 Orbital energies:

           1.1          2.1          3.1          4.1          5.1          6.1
    -15.523841    -1.134795    -0.633932    -0.418027     0.153368     0.290764

           1.2          2.2          3.2
     -0.617918     0.228290     0.474560

           1.3          2.3          3.3          4.3          5.3          6.3
    -15.523845    -1.126954    -0.598666    -0.421905     0.183955     0.265592

           1.4          2.4          3.4
     -0.615511     0.238469     0.570677


 HOMO      4.1    -0.418027 =     -11.3751eV
 LUMO      5.1     0.153368 =       4.1734eV
 LUMO-HOMO         0.571395 =      15.5485eV

 Orbitals saved in record  2100.2


 **********************************************************************************************************************************
 DATASETS  * FILE   NREC   LENGTH (MB)   RECORD NAMES
              1      19       33.03       500      610      700      900      950      970     1000      129      960     1100   
                                          VAR    BASINP    GEOM    SYMINP    ZMAT    AOBASIS   BASIS     P2S    ABASIS      S 
                                         1400     1410     1200     1210     1080     1600     1650     1300     1700   
                                           T        V       H0       H01     AOSYM     SMH    MOLCAS    ERIS     OPER   

              2       4        0.52       700     1000      520     2100   
                                         GEOM     BASIS   MCVARS     RHF  

 PROGRAMS   *        TOTAL    HF-SCF       INT
 CPU TIMES  *         0.48      0.06      0.31
 REAL TIME  *         0.52 SEC
 DISK USED  *        47.59 MB
 **********************************************************************************************************************************


 PROGRAM * OPT (Geometry optimization)     Authors: F. Eckert and H.-J. Werner


 BFGS update of hessian

 *** Long output written to logfile /home/lme/Theoretische_Chemie/Nomodeco/ase_integration/Ammonia_dimer.molpro/run/Ammonia_dimer_2.molpro/Ammonia_dimer_2.log ***


 Geometry optimization using default procedure for command HF-SCF

 Geometry written to block  1 of record 700

 PQS Optimization using delocalized internal coordinates

 Point group c2h. Number of degrees of freedom:    6

 ITER.   ENERGY(OLD)    ENERGY(NEW)      DE          GRADMAX     GRADNORM    GRADRMS     STEPMAX     STEPLEN     STEPRMS   CPU-time
   1  -112.42497492  -112.42575261    -0.00077770  0.01388640  0.02334315  0.00952980  0.07827223  0.08498976  0.03469692      0.55
   2  -112.42575261  -112.42585938    -0.00010677  0.00208353  0.00346921  0.00141630  0.05277861  0.06570885  0.02682553      1.08
   3  -112.42585938  -112.42588816    -0.00002878  0.00159109  0.00178065  0.00072695  0.03242409  0.04288532  0.01750786      1.63
   4  -112.42588816  -112.42590156    -0.00001340  0.00093260  0.00114779  0.00046858  0.02510088  0.03668621  0.01497708      2.17
