[Molden Format]
[Molpro variables]
_NUMVAR=  1058.000000000000    
_AVOGAD= 0.6022140760000000E+24
_BOLTZ= 0.1380649000000000E-22
_CLIGHTSI=  299792458.0000000    
_JOULE= 0.4359744722207100E-17
_JPCAL=  4.184000000000000    
_PLANCK= 0.6626070150000000E-33
_BOHR= 0.5291772109030000E-10
_ECHARG= 0.1602176634000000E-18
_ENULL= 0.8854187812800001E-11
_MU= 0.1660539066600000E-26
_EMASS= 0.9109383701500001E-30
_AMU2AU=  1822.888486217313    
_CLIGHT=  29979245800.00000    
_EV= 0.3674932217565494E-01
_KJOULE= 0.3808798847133432E-03
_KJOULE/MOL= 0.3808798847133432E-03
_CM= 0.4556335252912009E-05
_CM-1= 0.4556335252912009E-05
_DEB2SI= 0.3335640951981520E-29
_KCAL= 0.1593601437640628E-02
_KCAL/MOL= 0.1593601437640628E-02
_KELVIN= 0.3166811563455608E-05
_HERTZ= 0.1519829846057038E-15
_HZ= 0.1519829846057038E-15
_TOA= 0.5291772109030000    
_TOANG= 0.5291772109030000    
_TORAD= 0.1745329251994330E-01
_TOCM=  219474.6313631965    
_TODEBYE=  2.541746473194078    
_TOE= 0.4803204712570263E-09
_TOEV=  27.21138624598803    
_TOHERTZ=  6579683920501656.    
_TOHZ=  6579683920501656.    
_TOK=  315775.0248040668    
_TOKCAL=  627.5094740630558    
_TOKELVIN=  315775.0248040668    
_TOKJ=  2625.499639479825    
_TOKJOULE=  2625.499639479825    
_TOKG= 0.1660539066600000E-26
_ANG=  1.889726124625770    
_ANGSTROM=  1.889726124625770    
_RPAREF=  0.000000000000000    
_RPADISS=  0.000000000000000    
_IGNORE_UNDEF=  2.000000000000000    
_STRICTCHECK=  0.000000000000000    
!SEWARD=  0.000000000000000    
!MULTI=  0.000000000000000    
!DFMULTI=  0.000000000000000    
!NUMHESS=  0.000000000000000    
_SEW_ONEEL=  0.000000000000000    
_CPPDONE=FALSE
_DKROLL_DONE=  0.000000000000000    
_FNUC_DONE=  0.000000000000000    
_FOCKDONE=TRUE
_GRADONE=FALSE
_HESSDONE=TRUE
_INTDONE=TRUE
_SCFDONE=TRUE
_MODUL_BLOCK=FALSE
_MODUL_SLATER=TRUE
_MODUL_MRCC=FALSE
_MODUL_NBO6=FALSE
_MODUL_NECI=FALSE
_MODUL_AIMS=TRUE
_MODUL_HDF5=FALSE
_MODUL_GECCO=FALSE
_ISWINDOWS=FALSE
_MRCC_EXEC=
_FITC_AO_SAVED=FALSE
_FITC_MO_SAVED=FALSE
_LSTYP=SEWARD
_INTYP=INTS
_GEOMTYP=XYZ
_GRADTYP=ALASKA
_DIRECT=FALSE
_DKHO= -1.000000000000000    
_FNUC=  0.000000000000000    
_SYNCM=  0.000000000000000    
_BASIS=6-311G(D,P)
_ZCENTRE=MASS
_ZORIENT=  1.000000000000000    
_NELEC=  23.00000000000000    
!SPIN=  1.000000000000000    
_OPTCONV= 0.1234588826499548E-03
_QSDSTEP=  0.000000000000000    
_QSDIRC=  0.000000000000000    
_PROGRAM=FREQ
_CPUSTEP=  0.000000000000000    
_SYSSTEP=  0.000000000000000    
_WALLSTEP=  0.000000000000000    
!DFSCF=  0.000000000000000    
!SCSGRD=  0.000000000000000    
_NCEN=  3.000000000000000    
_CPUTOT=  6.170000000000000    
_CPUSORT= 0.4000000000000004E-01
_SYSSORT=  0.000000000000000    
_WALLSORT= 0.5000000074505806E-01
_DFTEXFAC=  1.000000000000000    
_DMX=  0.000000000000000    
_DMY=  0.000000000000000    
_DMZ= 0.2780698880989474    
_DMX_SCF=  0.000000000000000    
_DMY_SCF=  0.000000000000000    
_DMZ_SCF= 0.2780698880989474    
_FREQUENCIES= 0.2717446741291459E-04
_HOMO=  6.100000000000000    
_EHOMO=-0.4837284325649615    
_LUMO=  2.200000000000000    
_ELUMO= 0.1047420251587386    
_ENERGY= -204.0795856669240    
_ENERGY_METHOD=HF
_ENERGY_BASIS=6-311G(D,P)
_GEOMETRY_METHOD=
_GEOMETRY_BASIS=
_ENUC=  67.16869794383759    
_FREQSTEP=  10.00000000000000    
_GRADENERG= -204.0795758505946    
_GRADEXFAC=  9999.000000000000    
_GRADMETHOD=  2.000000000000000    
_NMRMETHOD=  0.000000000000000    
_NMRMAGNET=  0.000000000000000    
_VIRIAL= 0.8807309887501823E-02
!GRID_FREEZE= -1.000000000000000    
!NEESE_INDEX=  0.000000000000000    
_ITERATIONS=  2.000000000000000    
_LASTNELEC=  23.00000000000000    
_LASTSPIN=  1.000000000000000    
_LASTSYM=  1.000000000000000    
_MPP_PROG=  0.000000000000000    
_MSNSTATES=  0.000000000000000    
_RS2PHASE=  0.000000000000000    
_NPROC_MPP=  1.000000000000000    
_NPROC_SMP=  6.000000000000000    
_NUMSTEP=  0.000000000000000    
_OPTCONVMX= 0.9710243430576097E-04
_OPTCONVRMS= 0.8729861311949727E-04
_OPTGRAD= 0.1516190830635071E-03
_OPTGRADMX= 0.1134922224632103E-03
_OPTGRADRMS= 0.1072108817914923E-03
!GMAXLAST= 0.1134922224632103E-03
!DMAXLAST= 0.9710243430576097E-04
!DELAST= 0.8961291086961864E-07
_OPTSTEP=  5.000000000000000    
_ORBITAL=  2100.200000000000    
_PI=  3.141592653589793    
_SEIG_MIN= 0.7434857875006000E-02
_SEWPROP=TRUE
_STATUS=  1.000000000000000    
_SYSTOT= 0.6699999999999999    
_VERSION=  2024001.000000000    
_WALLTOT=  6.870000000000000    
_ZPE= 0.1010508192668532E-01
_DATE=18-Sep-24
_LASTORB=0
_OUTPUT=/home/lme/Theoretische_Chemie/Nomodeco/ase_integration/g2_databank/NO2.molpro/run/NO2_1.molpro/NO2_1.out
_PGROUP=C2v
_TIME=12:21:28
_LIBMOL=/usr/local/molpro/molpro_2024.1.0_sockets/lib/
_VIGRDC=  0.000000000000000    
!VIBCNT=  0.000000000000000    
!SURFREC=  0.000000000000000    
!XSURFREC=  0.000000000000000    
!XPOLYREC=  0.000000000000000    
!ROTREC=  0.000000000000000    
!POLYREC=  0.000000000000000    
!DIPREC=  0.000000000000000    
!DIP4DREC=  0.000000000000000    
!DIPROT=  0.000000000000000    
!DIP4DROT=  0.000000000000000    
!PTREC=  0.000000000000000    
!PT4DREC=  0.000000000000000    
!VSCFREC=  0.000000000000000    
!VCIREC=  0.000000000000000    
!PVCIREC=  0.000000000000000    
!VMP2REC=  0.000000000000000    
!VMCSCFREC=  0.000000000000000    
!VMRCIREC=  0.000000000000000    
!VIBSTATEREC=  0.000000000000000    
!VIBSTATECNT=  0.000000000000000    
!VIBINFO=  0.000000000000000    
!GAREC=  0.000000000000000    
!SCFORB=  21002.00000000000    
!DEFCORE=  2.000000000000000    
!SCORE=  0.000000000000000    
!NEWMOL=  0.000000000000000    
!NEWSYM=  1.000000000000000    
_SLFILES=slscratch
_NGSSTO=  9.000000000000000    
_SIN=SIN
_COS=COS
_TAN=TAN
_ACOS=ACOS
_ASIN=ASIN
_ATAN=ATAN
_COSH=COSH
_SINH=SINH
_TANH=TANH
_ABS=ABS
_MOD=MOD
_ERF=ERF
_REFC=REFC
_ERFC=ERFC
_HYPOT=HYPOT
_J0=J0
_J1=J1
_JN=JN
_GAMMA=GAMMA
_LGAMMA=LGAMMA
_Y0=Y0
_Y1=Y1
_YN=YN
_EXP=EXP
_LOG=LOG
_LOG10=LOG10
_SQRT=SQRT
_INT=INT
_NINT=NINT
_MAX=MAX
_MIN=MIN
_COSMO=  0.000000000000000    
_COSMOIT=  0.000000000000000    
_COSMOES=  0.000000000000000    
_COSMOEDS=  0.000000000000000    
_COSMOEC=  0.000000000000000    
_COSMOEDCORR=  0.000000000000000    
_FEPSI=  1.000000000000000    
_SL_IsMM=  0.000000000000000    
_SL_NSYM=  4.000000000000000    
_SL_System_BitSw=  0.000000000000000    
_SL_Unique_atoms=  0.000000000000000    
_SL_GRAD=  0.000000000000000    
_SL_MAXUPD_Hess=  5.000000000000000    
_SL_N_PRINT_COD=  5.000000000000000    
_SL_PRINT_CODES=  0.000000000000000    
_SL_BasType=  0.000000000000000    
_SL_Energy_Pred=  0.000000000000000    
_SL_New_Coords=  0.000000000000000    
_SL_Total_Nuclea=  0.000000000000000    
_SL_Highest_Mltp=  0.000000000000000    
_SL_Ref_Geom=  0.000000000000000    
_SL_Symmetry_ope=  6.000000000000000    
_SL_agrad=  0.000000000000000    
_SL_GrdMax=  0.000000000000000    
_SL_GrdNorm=  0.000000000000000    
_SL_GrdRMS=  0.000000000000000    
_SL_Hss_Q=  0.000000000000000    
_SL_Hss_X=  0.000000000000000    
_SL_BMxOld=  0.000000000000000    
_SL_KtB=  0.000000000000000    
_SL_TROld=  0.000000000000000    
_SL_No_of_Intern=  0.000000000000000    
_SL_Hess=  0.000000000000000    
_SL_K=  0.000000000000000    
!LATTICE= -1.000000000000000    
!NEWLATTICE=  0.000000000000000    
!LATGRAD_VAR=FALSE
!SEW_LATTICE=  1.000000000000000    
!AIC_ONEEL=  0.000000000000000    
!LOCAL=  0.000000000000000    
!SAVEDOM= -1.000000000000000    
!RESTDOM= -1.000000000000000    
!SAVEDOM_HF= -1.000000000000000    
!RESTDOM_HF= -1.000000000000000    
!HESSREC=  5300.200000000000    
!FREQREC=  5400.200000000000    
!NMODREC=  5450.200000000000    
!GTASKS=  0.000000000000000    
!HTASKS=  0.000000000000000    
!SAVEDOM_EOM= -1.000000000000000    
!RESTDOM_EOM= -1.000000000000000    
!GRADSTATE= -1.000000000000000    
!DEBUG=  0.000000000000000    
!CFIT_CPHF=  0.000000000000000    
!RDOMAUX_CPHF=  0.000000000000000    
!THRAO_CPHF= 0.1000000000000000E-11
!THRMO_CPHF= 0.1000000000000000E-11
!THROV_CPHF= 0.1000000000000000E-13
!THRSW_CPHF= 0.1000000000000000E-11
!THRPROD_CPHF= 0.1000000000000000E-11
!THRAOPR_CPHF= 0.1000000000000000E-11
!CFIT_SCFGRD=  0.000000000000000    
!RDOMAUX_SCFGRD=  0.000000000000000    
!THRAO_SCFGRD= 0.1000000000000000E-11
!THRMO_SCFGRD= 0.1000000000000000E-11
!THROV_SCFGRD= 0.1000000000000000E-13
!THRSW_SCFGRD= 0.1000000000000000E-11
!THRPROD_SCFGRD= 0.1000000000000000E-11
!THRAOPR_SCFGRD= 0.1000000000000000E-11
!LOCFIT_SCF=  0.000000000000000    
!LOCFIT_MP2=  0.000000000000000    
_RIDOM=  0.000000000000000    
!CC2_METHOD=  0.000000000000000    
_BASIS2006=FALSE
_SVDDEL= -1.000000000000000    
_SVDDELA= -1.000000000000000    
_SVDDELP= -1.000000000000000    
_SVDDELF= -1.000000000000000    
_SVDDELS= -1.000000000000000    
_SVDDEL_ABS= -1.000000000000000    
_SVDDELA_ABS= -1.000000000000000    
_SVDDELP_ABS= -1.000000000000000    
_SVDDELF_ABS= -1.000000000000000    
_SVDDELS_ABS= -1.000000000000000    
_MAXBASIS=  0.000000000000000    
!OPT_CONICAL=  0.000000000000000    
!CLEARSP_JGRID=  0.000000000000000    
_GRDHYBR=  0.000000000000000    
_STATEGRAD=  1.000000000000000    
_4EXT_NDISKS=  1.000000000000000    
!EMBEDFLAG=  1.000000000000000    
!EMBED=FALSE
!EMBED_F12=FALSE
!EMBEDNUC=  0.000000000000000    
_EMBEDENERGY=  0.000000000000000    
!EMBED_DFC=FALSE
!NUM_VOIDS=  0.000000000000000    
_IBODY=  0.000000000000000    
_EMBE_CORR=  0.000000000000000    
!EMBED_PROJ=FALSE
!EMB_PROJ_ZMU=  1000000.000000000    
!CORRECTION_HF=  0.000000000000000    
!EMBED_AORB=  0.000000000000000    
!EMBED_NACORR=  0.000000000000000    
!EMBED_MP2=FALSE
!EMBED_TRUNC_PERTURBATION=FALSE
!EMBED_FROZEN=  0.000000000000000    
!EMBED_ACTIVE=  0.000000000000000    
_CHANGE_BASIS=FALSE
_RESTORE_BASIS=FALSE
_FIX_EMBED_GUESS=FALSE
_EMBED_SCF=FALSE
_NEOBAS=FALSE
_NEOOVE=FALSE
_PRINEO=FALSE
_HUZINAGA_T=FALSE
_HUZINAGA_F=FALSE
_HUZINAGA=FALSE
_HUZINAGA_CORRECT=FALSE
!FASTLATGRAD=  1.000000000000000    
!FASTVLAMBDA= -1.000000000000000    
!IFORCE= -1.000000000000000    
!USESYM= -1.000000000000000    
_SINDEX=  0.000000000000000    
_AVDOM_OSV=  0.000000000000000    
_AVDOM_PNO=  0.000000000000000    
_AVDOM_PNOCC=  0.000000000000000    
_AVDOM_TNO=  0.000000000000000    
_AVDOM_TNOIT=  0.000000000000000    
_AVDOM_PAO=  0.000000000000000    
_AVDOM_LMO=  0.000000000000000    
_CC2OSV_FLAG=  0.000000000000000    
_EOMCCSD_CONV=FALSE
_TMADC2_FLAG=FALSE
_PROPADC2_FLAG=FALSE
_LEN_VirQ=  0.000000000000000    
_GRDCC2LR_FLAG=FALSE
_GRDADC2_FLAG=FALSE
_RO_VGLOBAL=  0.000000000000000    
_OPT=FALSE
_FREQ=FALSE
_HESS=FALSE
_CMRCC_callName=EMPTY
_CMRCC_callCount=  0.000000000000000    
_GECCO_CIROOT=  1.000000000000000    
_SYM_CATION=  1.000000000000000    
_MON_A=FALSE
_MON_B=FALSE
_MAXGEOM=  100.0000000000000    
!MAXGEOM=  100.0000000000000    
_NCORE=  0.000000000000000    
_NLARGECORE=  0.000000000000000    
GX1=  0.000000000000000    
GY1=  0.000000000000000    
GZ1= 0.2958048089045974    
GX2=  0.000000000000000    
GY2=  1.072326341675548    
GZ2=-0.1294841748227311    
GX3=  0.000000000000000    
GY3= -1.072326341675548    
GZ3=-0.1294841748227311    
NX1=  0.000000000000000    
NY1=  0.000000000000000    
NZ1= 0.5589900751769514    
OX2=  0.000000000000000    
OY2=  2.026403101988662    
OZ2=-0.2446896278881254    
OX3=  0.000000000000000    
OY3= -2.026403101988662    
OZ3=-0.2446896278881254    
[Atoms] Angs
N     1    7         0.0000000000        0.0000000000        0.2958048089
O     2    8         0.0000000000        1.0723263417       -0.1294841748
O     3    8         0.0000000000       -1.0723263417       -0.1294841748
[GTO]
   1 0
 s    6  1.00
  0.6293480000D+04  0.1969788147D-02
  0.9490440000D+03  0.1496128592D-01
  0.2187760000D+03  0.7350053084D-01
  0.6369160000D+02  0.2489367658D+00
  0.1882820000D+02  0.6024594331D+00
  0.2720230000D+01  0.2562017589D+00
 s    3  1.00
  0.3063310000D+02  0.1119060795D+00
  0.7026140000D+01  0.9216666549D+00
  0.2112050000D+01 -0.2569191826D-02
 s    1  1.00
  0.6840090000D+00  0.1000000000D+01
 s    1  1.00
  0.2008780000D+00  0.1000000000D+01
 p    3  1.00
  0.3063310000D+02  0.3831191864D-01
  0.7026140000D+01  0.2374031155D+00
  0.2112050000D+01  0.8175923978D+00
 p    1  1.00
  0.6840090000D+00  0.1000000000D+01
 p    1  1.00
  0.2008780000D+00  0.1000000000D+01
 d    1  1.00
  0.9130000000D+00  0.1000000000D+01
  
   2 0
 s    6  1.00
  0.8588500000D+04  0.1895150083D-02
  0.1297230000D+04  0.1438590063D-01
  0.2992960000D+03  0.7073200310D-01
  0.8737710000D+02  0.2400010105D+00
  0.2567890000D+02  0.5947970261D+00
  0.3740040000D+01  0.2808020123D+00
 s    3  1.00
  0.4211750000D+02  0.1138890124D+00
  0.9628370000D+01  0.9208111006D+00
  0.2853320000D+01 -0.3274470358D-02
 s    1  1.00
  0.9056610000D+00  0.1000000000D+01
 s    1  1.00
  0.2556110000D+00  0.1000000000D+01
 p    3  1.00
  0.4211750000D+02  0.3651139738D-01
  0.9628370000D+01  0.2371529830D+00
  0.2853320000D+01  0.8197019412D+00
 p    1  1.00
  0.9056610000D+00  0.1000000000D+01
 p    1  1.00
  0.2556110000D+00  0.1000000000D+01
 d    1  1.00
  0.1292000000D+01  0.1000000000D+01
  
   3 0
 s    6  1.00
  0.8588500000D+04  0.1895150083D-02
  0.1297230000D+04  0.1438590063D-01
  0.2992960000D+03  0.7073200310D-01
  0.8737710000D+02  0.2400010105D+00
  0.2567890000D+02  0.5947970261D+00
  0.3740040000D+01  0.2808020123D+00
 s    3  1.00
  0.4211750000D+02  0.1138890124D+00
  0.9628370000D+01  0.9208111006D+00
  0.2853320000D+01 -0.3274470358D-02
 s    1  1.00
  0.9056610000D+00  0.1000000000D+01
 s    1  1.00
  0.2556110000D+00  0.1000000000D+01
 p    3  1.00
  0.4211750000D+02  0.3651139738D-01
  0.9628370000D+01  0.2371529830D+00
  0.2853320000D+01  0.8197019412D+00
 p    1  1.00
  0.9056610000D+00  0.1000000000D+01
 p    1  1.00
  0.2556110000D+00  0.1000000000D+01
 d    1  1.00
  0.1292000000D+01  0.1000000000D+01


[MO]
 Sym=      1.3
 Ene=     -20.6688
 Spin= Alpha
 Occup=    2.000000
1 0.0
2 0.0
3 0.0
4 0.0
5 0.0
6 0.000116285022821
7 0.0
8 0.0
9 0.000528619862011
10 0.0
11 0.0
12 0.000674258863445
13 0.0
14 0.0
15 0.0
16 0.0
17 0.0
18 0.0
19 -0.000231929772568
20 0.38995463549657
21 0.33355589940820
22 0.003775663919740
23 -0.000765559027170
24 0.0
25 -0.001462758831150
26 0.000555445860655
27 0.0
28 0.000550958139291
29 -0.000197906012822
30 0.0
31 0.000050842490727
32 -0.000114565449541
33 -0.000023406459959
34 -0.000032047936667
35 0.000055454396626
36 0.0
37 0.0
38 0.000072619414210
39 -0.38995463549657
40 -0.33355589940820
41 -0.003775663919740
42 0.000765559027170
43 0.0
44 -0.001462758831150
45 -0.000555445860655
46 0.0
47 0.000550958139291
48 0.000197906012822
49 0.0
50 0.000050842490727
51 0.000114565449541
52 0.000023406459959
53 0.000032047936667
54 -0.000055454396626
55 0.0
56 0.0
57 0.000072619414210
 Sym=      1.1
 Ene=     -20.6688
 Spin= Alpha
 Occup=    2.000000
1 0.000052544489005
2 -0.000068658492009
3 0.000385115726702
4 0.000892063377939
5 0.0
6 0.0
7 -0.000044544404077
8 0.0
9 0.0
10 -0.000162362061098
11 0.0
12 0.0
13 -0.000228668605492
14 -0.000124631552063
15 0.000216051763579
16 -0.000091420211516
17 0.0
18 0.0
19 0.0
20 0.38995854116076
21 0.33356050307929
22 0.003770333832748
23 -0.000632517664371
24 0.0
25 -0.001440738398917
26 0.000555333820741
27 0.0
28 0.000523751989659
29 -0.000234660999566
30 0.0
31 0.000095736546587
32 0.000017379509575
33 -0.000030268506307
34 -0.000016079351325
35 0.000046347857632
36 0.0
37 0.0
38 0.000066700370806
39 0.38995854116076
40 0.33356050307929
41 0.003770333832748
42 -0.000632517664371
43 0.0
44 0.001440738398917
45 0.000555333820741
46 0.0
47 -0.000523751989659
48 -0.000234660999566
49 0.0
50 -0.000095736546587
51 0.000017379509575
52 -0.000030268506307
53 -0.000016079351325
54 0.000046347857632
55 0.0
56 0.0
57 -0.000066700370806
 Sym=      2.1
 Ene=     -15.8599
 Spin= Alpha
 Occup=    2.000000
1 0.55776968783431
2 0.46835461522354
3 0.004289764579006
4 -0.000049915122567
5 0.0
6 0.0
7 -0.001471533663543
8 0.0
9 0.0
10 0.000328846279960
11 0.0
12 0.0
13 -0.000267965077348
14 -0.000363352389608
15 0.000429984892797
16 -0.000066632503189
17 0.0
18 0.0
19 0.0
20 -0.000168427914064
21 -0.000220660243698
22 0.000305341853711
23 -0.000071245993132
24 0.0
25 -0.000160354573775
26 0.000121956416318
27 0.0
28 -0.000309398697757
29 0.000093014614803
30 0.0
31 0.000064848267996
32 0.000076390643715
33 -0.000040443762866
34 0.000154049311786
35 -0.000113605548920
36 0.0
37 0.0
38 -0.000028083897373
39 -0.000168427914064
40 -0.000220660243698
41 0.000305341853711
42 -0.000071245993132
43 0.0
44 0.000160354573775
45 0.000121956416318
46 0.0
47 0.000309398697757
48 0.000093014614803
49 0.0
50 -0.000064848267996
51 0.000076390643715
52 -0.000040443762866
53 0.000154049311786
54 -0.000113605548920
55 0.0
56 0.0
57 0.000028083897373
 Sym=      3.1
 Ene=      -1.6968
 Spin= Alpha
 Occup=    2.000000
1 -0.088140432315131
2 -0.14561995367770
3 0.42097969199844
4 0.081400001323192
5 0.0
6 0.0
7 -0.046121505093082
8 0.0
9 0.0
10 -0.074339350334863
11 0.0
12 0.0
13 0.004180245505220
14 -0.018270213136714
15 0.028014532798470
16 -0.009744319661756
17 0.0
18 0.0
19 0.0
20 -0.062229305779488
21 -0.10360534958830
22 0.29629649251733
23 0.17563455044483
24 0.0
25 -0.052870489244559
26 0.016078972983590
27 0.0
28 -0.085518767929217
29 0.024405959974301
30 0.0
31 -0.035116803330390
32 0.010240131170140
33 -0.007560438401820
34 0.014600403776724
35 -0.007039965374905
36 0.0
37 0.0
38 -0.007540484418379
39 -0.062229305779488
40 -0.10360534958830
41 0.29629649251733
42 0.17563455044483
43 0.0
44 0.052870489244559
45 0.016078972983590
46 0.0
47 0.085518767929217
48 0.024405959974301
49 0.0
50 0.035116803330390
51 0.010240131170140
52 -0.007560438401820
53 0.014600403776724
54 -0.007039965374905
55 0.0
56 0.0
57 0.007540484418379
 Sym=      2.3
 Ene=      -1.5113
 Spin= Alpha
 Occup=    2.000000
1 0.0
2 0.0
3 0.0
4 0.0
5 0.0
6 0.14960928251019
7 0.0
8 0.0
9 0.23230402050059
10 0.0
11 0.0
12 -0.019770596391449
13 0.0
14 0.0
15 0.0
16 0.0
17 0.0
18 0.0
19 -0.030756951176193
20 -0.077048952586464
21 -0.12856323402437
22 0.36724753452183
23 0.27379655833342
24 0.0
25 -0.045085852561459
26 0.022467224200738
27 0.0
28 -0.068892943964657
29 0.035207240520328
30 0.0
31 -0.040051565906549
32 0.022160953093416
33 -0.006949559442179
34 0.009581762685700
35 -0.002632203243521
36 0.0
37 0.0
38 -0.010421742868828
39 0.077048952586464
40 0.12856323402437
41 -0.36724753452183
42 -0.27379655833342
43 0.0
44 -0.045085852561459
45 -0.022467224200738
46 0.0
47 -0.068892943964657
48 -0.035207240520328
49 0.0
50 -0.040051565906549
51 -0.022160953093416
52 0.006949559442179
53 -0.009581762685700
54 0.002632203243521
55 0.0
56 0.0
57 -0.010421742868828
 Sym=      4.1
 Ene=      -0.9047
 Spin= Alpha
 Occup=    2.000000
1 0.070746223290867
2 0.12075424499655
3 -0.38820165813084
4 -0.27156941856450
5 0.0
6 0.0
7 -0.012699561699773
8 0.0
9 0.0
10 -0.014294545043318
11 0.0
12 0.0
13 -0.005024413019282
14 0.003788442481038
15 -0.009782734779700
16 0.005994292298662
17 0.0
18 0.0
19 0.0
20 -0.059125926450265
21 -0.10002419169027
22 0.29627361034654
23 0.36456270525782
24 0.0
25 0.10655226623895
26 -0.060591177781167
27 0.0
28 0.15812246587028
29 -0.091259771645152
30 0.0
31 0.078594939310147
32 -0.058770980042058
33 0.007147308323007
34 -0.010956566539135
35 0.003809258216128
36 0.0
37 0.0
38 0.011195090536858
39 -0.059125926450265
40 -0.10002419169027
41 0.29627361034654
42 0.36456270525782
43 0.0
44 -0.10655226623895
45 -0.060591177781167
46 0.0
47 -0.15812246587028
48 -0.091259771645152
49 0.0
50 -0.078594939310147
51 -0.058770980042058
52 0.007147308323007
53 -0.010956566539135
54 0.003809258216128
55 0.0
56 0.0
57 -0.011195090536858
 Sym=      5.1
 Ene=      -0.7977
 Spin= Alpha
 Occup=    2.000000
1 -0.012726582855107
2 -0.021632348086034
3 0.060371625578630
4 0.046319054202396
5 0.0
6 0.0
7 0.17100365671872
8 0.0
9 0.0
10 0.28351466515033
11 0.0
12 0.0
13 0.15730892299324
14 0.004541300221303
15 0.031163515515904
16 -0.035704815737207
17 0.0
18 0.0
19 0.0
20 -0.009755343101578
21 -0.016076060207757
22 0.043999072825236
23 0.093559664238921
24 0.0
25 0.090083552594297
26 0.12844512025841
27 0.0
28 0.14363935082508
29 0.20121822067856
30 0.0
31 0.083364023971268
32 0.15479045920656
33 0.004021159751918
34 -0.018927020180874
35 0.014905860428956
36 0.0
37 0.0
38 -0.011656249194061
39 -0.009755343101578
40 -0.016076060207757
41 0.043999072825236
42 0.093559664238921
43 0.0
44 -0.090083552594297
45 0.12844512025841
46 0.0
47 -0.14363935082508
48 0.20121822067856
49 0.0
50 -0.083364023971268
51 0.15479045920656
52 0.004021159751918
53 -0.018927020180874
54 0.014905860428956
55 0.0
56 0.0
57 0.011656249194061
 Sym=      3.3
 Ene=      -0.7861
 Spin= Alpha
 Occup=    2.000000
1 0.0
2 0.0
3 0.0
4 0.0
5 0.0
6 -0.16363246519014
7 0.0
8 0.0
9 -0.27562184700655
10 0.0
11 0.0
12 -0.076049120069483
13 0.0
14 0.0
15 0.0
16 0.0
17 0.0
18 0.0
19 0.014229830480132
20 -0.040240818210062
21 -0.068197696155797
22 0.20283737000931
23 0.28931391229313
24 0.0
25 0.14187334655652
26 -0.084445404438694
27 0.0
28 0.20925612933500
29 -0.12936142721356
30 0.0
31 0.12977680682309
32 -0.083644250470021
33 0.010125219311561
34 -0.013269538855982
35 0.003144319544421
36 0.0
37 0.0
38 0.016437756165436
39 0.040240818210062
40 0.068197696155797
41 -0.20283737000931
42 -0.28931391229313
43 0.0
44 0.14187334655652
45 0.084445404438694
46 0.0
47 0.20925612933500
48 0.12936142721356
49 0.0
50 0.12977680682309
51 0.083644250470021
52 -0.010125219311561
53 0.013269538855982
54 -0.003144319544421
55 0.0
56 0.0
57 0.016437756165436
 Sym=      1.2
 Ene=      -0.7810
 Spin= Alpha
 Occup=    2.000000
1 0.0
2 0.0
3 0.0
4 0.0
5 0.18146693634985
6 0.0
7 0.0
8 0.31064157205205
9 0.0
10 0.0
11 0.19037797737941
12 0.0
13 0.0
14 0.0
15 0.0
16 0.0
17 0.0
18 -0.027223249777067
19 0.0
20 0.0
21 0.0
22 0.0
23 0.0
24 0.14415667666896
25 0.0
26 0.0
27 0.23377455593736
28 0.0
29 0.0
30 0.16117860016032
31 0.0
32 0.0
33 0.0
34 0.0
35 0.0
36 -0.025542131593900
37 0.009916273423092
38 0.0
39 0.0
40 0.0
41 0.0
42 0.0
43 0.14415667666896
44 0.0
45 0.0
46 0.23377455593736
47 0.0
48 0.0
49 0.16117860016032
50 0.0
51 0.0
52 0.0
53 0.0
54 0.0
55 0.025542131593900
56 0.009916273423092
57 0.0
 Sym=      4.3
 Ene=      -0.5511
 Spin= Alpha
 Occup=    2.000000
1 0.0
2 0.0
3 0.0
4 0.0
5 0.0
6 -0.010031655146730
7 0.0
8 0.0
9 -0.026261722823053
10 0.0
11 0.0
12 0.11839999825713
13 0.0
14 0.0
15 0.0
16 0.0
17 0.0
18 0.0
19 0.057532099273237
20 0.001011879093751
21 0.001222363225719
22 0.001661416889209
23 -0.078713897325872
24 0.0
25 0.11661845499421
26 0.18161437835425
27 0.0
28 0.17550749941929
29 0.28827177601107
30 0.0
31 0.18734434911049
32 0.25015274780323
33 0.000429417970264
34 -0.012024381463969
35 0.011594963493705
36 0.0
37 0.0
38 -0.012603744161154
39 -0.001011879093751
40 -0.001222363225719
41 -0.001661416889209
42 0.078713897325872
43 0.0
44 0.11661845499421
45 -0.18161437835425
46 0.0
47 0.17550749941929
48 -0.28827177601107
49 0.0
50 0.18734434911049
51 -0.25015274780323
52 -0.000429417970264
53 0.012024381463969
54 -0.011594963493705
55 0.0
56 0.0
57 -0.012603744161154
 Sym=      1.4
 Ene=      -0.5282
 Spin= Alpha
 Occup=    2.000000
1 0.0
2 0.0
3 0.0
4 0.0
5 0.0
6 0.0
7 0.0
8 0.0
9 0.0
10 0.0
11 0.0
12 0.0
13 0.0
14 0.0
15 0.0
16 0.0
17 0.069321625849495
18 0.0
19 0.0
20 0.0
21 0.0
22 0.0
23 0.0
24 0.20768658586939
25 0.0
26 0.0
27 0.32229318433384
28 0.0
29 0.0
30 0.32691986433656
31 0.0
32 0.0
33 0.0
34 0.0
35 0.0
36 -0.019124732491056
37 0.007624665871973
38 0.0
39 0.0
40 0.0
41 0.0
42 0.0
43 -0.20768658586939
44 0.0
45 0.0
46 -0.32229318433384
47 0.0
48 0.0
49 -0.32691986433656
50 0.0
51 0.0
52 0.0
53 0.0
54 0.0
55 -0.019124732491056
56 -0.007624665871973
57 0.0
 Sym=      6.1
 Ene=      -0.4837
 Spin= Alpha
 Occup=    1.000000
1 -0.037666975868001
2 -0.064349581559621
3 0.17922052850731
4 0.54714592424680
5 0.0
6 0.0
7 0.22719233677388
8 0.0
9 0.0
10 0.36854781322046
11 0.0
12 0.0
13 0.25446471255924
14 0.013958655784683
15 -0.052664580203470
16 0.038705924418787
17 0.0
18 0.0
19 0.0
20 0.011627689804602
21 0.020037699240413
22 -0.066788747870962
23 -0.10415058485376
24 0.0
25 0.021862255399195
26 -0.16446140841602
27 0.0
28 0.034587146373890
29 -0.24730469830336
30 0.0
31 0.036244326941253
32 -0.30437595284654
33 0.003363166958846
34 -0.006967673708948
35 0.003604506750102
36 0.0
37 0.0
38 0.002315812942118
39 0.011627689804602
40 0.020037699240413
41 -0.066788747870962
42 -0.10415058485376
43 0.0
44 -0.021862255399195
45 -0.16446140841602
46 0.0
47 -0.034587146373890
48 -0.24730469830336
49 0.0
50 -0.036244326941253
51 -0.30437595284654
52 0.003363166958846
53 -0.006967673708948
54 0.003604506750102
55 0.0
56 0.0
57 -0.002315812942118
 Sym=      2.2
 Ene=       0.1047
 Spin= Alpha
 Occup=    0.000000
1 0.0
2 0.0
3 0.0
4 0.0
5 0.23727767497606
6 0.0
7 0.0
8 0.39351443310226
9 0.0
10 0.0
11 0.63278784498875
12 0.0
13 0.0
14 0.0
15 0.0
16 0.0
17 0.0
18 0.015868261762787
19 0.0
20 0.0
21 0.0
22 0.0
23 0.0
24 -0.16122585706196
25 0.0
26 0.0
27 -0.23045325834615
28 0.0
29 0.0
30 -0.44431930798281
31 0.0
32 0.0
33 0.0
34 0.0
35 0.0
36 -0.011520166491194
37 0.005806647174477
38 0.0
39 0.0
40 0.0
41 0.0
42 0.0
43 -0.16122585706196
44 0.0
45 0.0
46 -0.23045325834615
47 0.0
48 0.0
49 -0.44431930798281
50 0.0
51 0.0
52 0.0
53 0.0
54 0.0
55 0.011520166491194
56 0.005806647174477
57 0.0
 Sym=      7.1
 Ene=       0.4656
 Spin= Alpha
 Occup=    0.000000
1 -0.039209489455350
2 -0.063893876320204
3 0.023885837169152
4 3.39107043130303
5 0.0
6 0.0
7 -0.13379175652399
8 0.0
9 0.0
10 -0.25191984925144
11 0.0
12 0.0
13 -1.27322477501834
14 0.042716380555441
15 -0.052879916300872
16 0.010163535745431
17 0.0
18 0.0
19 0.0
20 0.045587055197225
21 0.079713691815724
22 -0.23972729530774
23 -1.51151526626970
24 0.0
25 0.13148964939820
26 0.016913997579834
27 0.0
28 0.17592039677607
29 0.015802539294718
30 0.0
31 1.12027844246919
32 -0.036297996213414
33 0.009693994285611
34 0.003267972073249
35 -0.012961966358860
36 0.0
37 0.0
38 0.013582343079354
39 0.045587055197225
40 0.079713691815724
41 -0.23972729530774
42 -1.51151526626970
43 0.0
44 -0.13148964939820
45 0.016913997579834
46 0.0
47 -0.17592039677607
48 0.015802539294718
49 0.0
50 -1.12027844246919
51 -0.036297996213414
52 0.009693994285611
53 0.003267972073249
54 -0.012961966358860
55 0.0
56 0.0
57 -0.013582343079354
 Sym=      5.3
 Ene=       0.5634
 Spin= Alpha
 Occup=    0.000000
1 0.0
2 0.0
3 0.0
4 0.0
5 0.0
6 0.10160232902761
7 0.0
8 0.0
9 0.11220311117094
10 0.0
11 0.0
12 3.74228105280478
13 0.0
14 0.0
15 0.0
16 0.0
17 0.0
18 0.0
19 0.022583791279923
20 0.039640538655442
21 0.067838672575546
22 -0.16816983962218
23 -2.58605763356347
24 0.0
25 0.011741495014751
26 -0.074301245681324
27 0.0
28 -0.035821456343747
29 -0.093078213461739
30 0.0
31 1.07340373886687
32 -0.80126435205155
33 0.000516643208923
34 -0.010614224336376
35 0.010097581127454
36 0.0
37 0.0
38 -0.001576785986656
39 -0.039640538655442
40 -0.067838672575546
41 0.16816983962218
42 2.58605763356347
43 0.0
44 0.011741495014751
45 0.074301245681324
46 0.0
47 -0.035821456343747
48 0.093078213461739
49 0.0
50 1.07340373886687
51 0.80126435205155
52 -0.000516643208923
53 0.010614224336376
54 -0.010097581127454
55 0.0
56 0.0
57 -0.001576785986656
 Sym=      8.1
 Ene=       0.6780
 Spin= Alpha
 Occup=    0.000000
1 0.043844483722242
2 0.088854580421923
3 -0.57018249432760
4 0.33496731854084
5 0.0
6 0.0
7 -0.17653127639789
8 0.0
9 0.0
10 -0.73379779498621
11 0.0
12 0.0
13 1.35136321426196
14 -0.016444033043192
15 -0.015900582540439
16 0.032344615583631
17 0.0
18 0.0
19 0.0
20 0.002696809890690
21 0.006338978086081
22 -0.043122713066752
23 0.21274112414022
24 0.0
25 -0.016703788638208
26 -0.038890121831857
27 0.0
28 -0.016586079202323
29 -0.11947522814802
30 0.0
31 -0.086202724521155
32 -0.11809526318979
33 0.005372501726621
34 0.001437120819679
35 -0.006809622546300
36 0.0
37 0.0
38 0.023881958812128
39 0.002696809890690
40 0.006338978086081
41 -0.043122713066752
42 0.21274112414022
43 0.0
44 0.016703788638208
45 -0.038890121831857
46 0.0
47 0.016586079202323
48 -0.11947522814802
49 0.0
50 0.086202724521155
51 -0.11809526318979
52 0.005372501726621
53 0.001437120819679
54 -0.006809622546300
55 0.0
56 0.0
57 -0.023881958812128
 Sym=      3.2
 Ene=       0.7035
 Spin= Alpha
 Occup=    0.000000
1 0.0
2 0.0
3 0.0
4 0.0
5 -0.18916477081839
6 0.0
7 0.0
8 -0.79679432543288
9 0.0
10 0.0
11 1.28137755101753
12 0.0
13 0.0
14 0.0
15 0.0
16 0.0
17 0.0
18 0.039135494539006
19 0.0
20 0.0
21 0.0
22 0.0
23 0.0
24 -0.055027713369220
25 0.0
26 0.0
27 -0.18158177811548
28 0.0
29 0.0
30 -0.038598147970309
31 0.0
32 0.0
33 0.0
34 0.0
35 0.0
36 0.025669863440261
37 -0.008731721371078
38 0.0
39 0.0
40 0.0
41 0.0
42 0.0
43 -0.055027713369220
44 0.0
45 0.0
46 -0.18158177811548
47 0.0
48 0.0
49 -0.038598147970309
50 0.0
51 0.0
52 0.0
53 0.0
54 0.0
55 -0.025669863440261
56 -0.008731721371078
57 0.0
 Sym=      9.1
 Ene=       0.7859
 Spin= Alpha
 Occup=    0.000000
1 -0.10248192536463
2 -0.21371513903812
3 1.49437602929632
4 -1.57728320839752
5 0.0
6 0.0
7 -0.085151407148903
8 0.0
9 0.0
10 -0.26425673738233
11 0.0
12 0.0
13 0.50146954106692
14 0.019155251323944
15 -0.075582559551459
16 0.056427308227515
17 0.0
18 0.0
19 0.0
20 -0.004925722426692
21 -0.013949488627314
22 0.14287156838098
23 0.27532396625810
24 0.0
25 0.056688886032773
26 -0.073525875320035
27 0.0
28 -0.029824765661816
29 -0.14995325531365
30 0.0
31 0.17074519040119
32 0.046218892790241
33 -0.036756389487038
34 0.062220084051462
35 -0.025463694564425
36 0.0
37 0.0
38 -0.038739860782273
39 -0.004925722426692
40 -0.013949488627314
41 0.14287156838098
42 0.27532396625810
43 0.0
44 -0.056688886032773
45 -0.073525875320035
46 0.0
47 0.029824765661816
48 -0.14995325531365
49 0.0
50 -0.17074519040119
51 0.046218892790241
52 -0.036756389487038
53 0.062220084051462
54 -0.025463694564425
55 0.0
56 0.0
57 0.038739860782273
 Sym=      6.3