
 Working directory              : /tmp/lme/molpro.yiZu3oPBqU/
 Global scratch directory       : /tmp/lme/molpro.yiZu3oPBqU/
 Wavefunction directory         : /home/lme/wfu/
 Main file repository           : /tmp/lme/molpro.yiZu3oPBqU/

 id        : liedlgroup

 Nodes     nprocs
 sv1-c724     1
 GA implementation: MPI file
 GA implementation (serial work in mppx): MPI file

 Using customized tuning parameters: mindgm=1; mindgv=20; mindgc=4; mindgr=1; noblas=0; minvec=7
 default implementation of scratch files=df  


 Variables initialized (1042), CPU time= 0.01 sec
 
                orient,mass
                geometry=initial.xyz
 Including file /home/lme/Theoretische_Chemie/Nomodeco/ase_integration/g2_databank/NO2.molpro/run/NO2_1.molpro/initial.xyz
                mass, iso
                basis=6-311g(d,p)
                {hf
                start, atden}
                optg;
                {frequencies, symm=auto, print=0, analytical}
                put, molden, NO2.molden
 Commands initialized (847), CPU time= 0.00 sec, 718 directives.
 Default parameters read. Elapsed time= 0.07 sec

 Checking input...
 Passed
1


                                         ***  PROGRAM SYSTEM MOLPRO  ***
                                       Copyright, TTI GmbH Stuttgart, 2015
                                    Version 2024.1 linked Wed Jan 31 11:42:09 2024


 **********************************************************************************************************************************
 LABEL *                                                                                                                                                                 
  (6 PROC) 64 bit serial version                                                         DATE: 18-Sep-24          TIME: 12:21:28  
 **********************************************************************************************************************************

 SHA1:             675817fde4514a4a933b69e420913a90cee4ef91
 **********************************************************************************************************************************

 Memory per process:        32 MW
 Total memory per node:     32 MW

 GA preallocation disabled
 GA check disabled

 Variable memory set to 32.0 MW

 ZCENTRE=MASS


 Geometry recognized as XYZ



 Using masses of most abundant isotopes

 **********************************************************************************************************************************
 SETTING BASIS          =    6-311G(D,P)


 Recomputing integrals since basis changed


 Using spherical harmonics

 Library entry N      S 6-311G               selected for orbital group  1
 Library entry N      P 6-311G               selected for orbital group  1
 Library entry N      D 6-311G*              selected for orbital group  1
 Library entry O      S 6-311G               selected for orbital group  2
 Library entry O      P 6-311G               selected for orbital group  2
 Library entry O      D 6-311G*              selected for orbital group  2


 PROGRAM * SEWARD (Integral evaluation for generally contracted gaussian basis sets)     Author: Roland Lindh, 1990

 Geometry written to block  1 of record 700

 Orientation using atomic masses  
 Molecule type: Asymmetric top,     Order of principal axis = 2
 Symmetry elements: X,Y
 Rotational constants:      11.9713781    227.4395554     12.6365060 GHz

 Point group  C2v 



 ATOMIC COORDINATES

 NR  ATOM    CHARGE       X              Y              Z

   1  N       7.00    0.000000000    0.000000000    0.627802992
   2  O       8.00    0.000000000    2.112944354   -0.274811463
   3  O       8.00    0.000000000   -2.112944354   -0.274811463

 Bond lengths in Bohr (Angstrom)

 1-2  2.297661136  1-3  2.297661136
     ( 1.215869912)     ( 1.215869912)

 Bond angles

  2-1-3  133.73727533

 NUCLEAR CHARGE:                   23
 NUMBER OF PRIMITIVE AOS:          96
 NUMBER OF SYMMETRY AOS:           93
 NUMBER OF CONTRACTIONS:           54   (   22A1  +    9B1  +   17B2  +    6A2  )
 NUMBER OF INNER CORE ORBITALS:     0   (    0A1  +    0B1  +    0B2  +    0A2  )
 NUMBER OF OUTER CORE ORBITALS:     3   (    2A1  +    0B1  +    1B2  +    0A2  )
 NUMBER OF VALENCE ORBITALS:       12   (    5A1  +    2B1  +    4B2  +    1A2  )


 NUCLEAR REPULSION ENERGY   63.88996443

 Eigenvalues of metric

         1 0.933E-02 0.934E-01 0.965E-01 0.124E+00 0.143E+00 0.211E+00 0.232E+00 0.291E+00
         2 0.118E+00 0.237E+00 0.390E+00 0.841E+00 0.980E+00 0.995E+00 0.114E+01 0.160E+01
         3 0.118E-01 0.739E-01 0.960E-01 0.150E+00 0.211E+00 0.286E+00 0.505E+00 0.635E+00
         4 0.204E+00 0.536E+00 0.811E+00 0.100E+01 0.128E+01 0.206E+01


 Contracted 2-electron integrals neglected if value below      1.0D-11
 AO integral compression algorithm  1   Integral accuracy      1.0D-11

     2.359 MB (compressed) written to integral file ( 55.6%)


 NUMBER OF SORTED TWO-ELECTRON INTEGRALS:     305116.     BUFFER LENGTH:  32768
 NUMBER OF SEGMENTS:   1  SEGMENT LENGTH:     305116      RECORD LENGTH: 524288

 Memory used in sort:       0.86 MW

 SORT1 READ      527756. AND WROTE      273120. INTEGRALS IN      1 RECORDS. CPU TIME:     0.00 SEC, REAL TIME:     0.01 SEC
 SORT2 READ      273120. AND WROTE      305116. INTEGRALS IN      9 RECORDS. CPU TIME:     0.03 SEC, REAL TIME:     0.02 SEC

 FILE SIZES:   FILE 1:    32.5 MBYTE,  FILE 4:     4.3 MBYTE,   TOTAL:     36.7 MBYTE

 OPERATOR DM      FOR CENTER  0  COORDINATES:    0.000000    0.000000    0.000000


 **********************************************************************************************************************************
 DATASETS  * FILE   NREC   LENGTH (MB)   RECORD NAMES
              1      19       29.97       500      610      700      900      950      970     1000      129      960     1100   
                                          VAR    BASINP    GEOM    SYMINP    ZMAT    AOBASIS   BASIS     P2S    ABASIS      S 
                                         1400     1410     1200     1210     1080     1600     1650     1300     1700   
                                           T        V       H0       H01     AOSYM     SMH    MOLCAS    ERIS     OPER   

 PROGRAMS   *        TOTAL       INT
 CPU TIMES  *         0.28      0.17
 REAL TIME  *         0.35 SEC
 DISK USED  *        35.37 MB
 **********************************************************************************************************************************


 Program * Restricted Hartree-Fock

 Orbital guess generated from atomic densities.

 Initial alpha occupancy:   6   1   4   1
 Initial beta  occupancy:   5   1   4   1

 NELEC=   23   SYM=1   MS2= 1   THRE=1.0D-08   THRD=1.0D-06   THRG=1.0D-06  HFMA2=F  DIIS_START=2   DIIS_MAX=10   DIIS_INCORE=F

 Level shifts:    0.00 (CLOSED)    0.00 (OPEN)    0.30 (GAP_MIN)

 ITER           ETOT              DE          GRAD        DDIFF     DIIS  NEXP   TIME(IT)  TIME(TOT)  DIAG
   1     -203.93685159    -203.93685159     0.00D+00     0.15D+00     0     0       0.00      0.01    start
   2     -203.98219841      -0.04534682     0.31D-01     0.30D-01     1     0       0.00      0.01    diag2
   3     -204.06380035      -0.08160194     0.26D-01     0.13D-01     2     0       0.00      0.01    diag2
   4     -204.06473841      -0.00093806     0.24D-02     0.17D-02     3     0       0.00      0.01    diag2
   5     -204.06498756      -0.00024914     0.68D-03     0.11D-02     4     0       0.01      0.02    diag2
   6     -204.06506416      -0.00007661     0.33D-03     0.64D-03     5     0       0.00      0.02    diag2
   7     -204.06508098      -0.00001682     0.12D-03     0.28D-03     6     0       0.00      0.02    diag2
   8     -204.06508490      -0.00000392     0.48D-04     0.11D-03     7     0       0.00      0.02    fixocc
   9     -204.06508576      -0.00000087     0.23D-04     0.63D-04     8     0       0.00      0.02    diag2
  10     -204.06508578      -0.00000002     0.40D-05     0.90D-05     9     0       0.00      0.02    diag2/orth
  11     -204.06508578      -0.00000000     0.80D-06     0.12D-05     9     0       0.01      0.03    diag2
  12     -204.06508578      -0.00000000     0.21D-06     0.36D-06     9     0       0.00      0.03    diag2
  13     -204.06508578      -0.00000000     0.50D-07     0.87D-07     0     0       0.00      0.03    diag

 Final alpha occupancy:   6   1   4   1
 Final beta  occupancy:   5   1   4   1

 !RHF STATE 1.1 Energy               -204.065085780657
  RHF One-electron energy            -406.143009886660
  RHF Two-electron energy             138.187959680309
  RHF Kinetic energy                  203.666050931424
  RHF Nuclear energy                   63.889964425694
  RHF Virial quotient                  -1.001959260502

 !RHF STATE 1.1 Dipole moment           0.00000000     0.00000000     0.31368607
 Dipole moment /Debye                   0.00000000     0.00000000     0.79731047

 Orbital energies:

           1.1          2.1          3.1          4.1          5.1          6.1          7.1          8.1
    -20.682583   -15.876379    -1.642439    -0.922637    -0.767251    -0.512978     0.407567     0.683710

           1.2          2.2          3.2
     -0.745505     0.060864     0.714955

           1.3          2.3          3.3          4.3          5.3          6.3
    -20.682640    -1.466625    -0.770136    -0.547644     0.521942     0.770343

           1.4          2.4          3.4
     -0.523217     1.006177     1.956278


 HOMO      6.1    -0.512978 =     -13.9588eV
 LUMO      2.2     0.060864 =       1.6562eV
 LUMO-HOMO         0.573842 =      15.6150eV

 Orbitals saved in record  2100.2


 **********************************************************************************************************************************
 DATASETS  * FILE   NREC   LENGTH (MB)   RECORD NAMES
              1      19       29.97       500      610      700      900      950      970     1000      129      960     1100   
                                          VAR    BASINP    GEOM    SYMINP    ZMAT    AOBASIS   BASIS     P2S    ABASIS      S 
                                         1400     1410     1200     1210     1080     1600     1650     1300     1700   
                                           T        V       H0       H01     AOSYM     SMH    MOLCAS    ERIS     OPER   

              2       4        0.44       700     1000      520     2100   
                                         GEOM     BASIS   MCVARS     RHF  

 PROGRAMS   *        TOTAL    HF-SCF       INT
 CPU TIMES  *         0.31      0.03      0.17
 REAL TIME  *         0.39 SEC
 DISK USED  *        35.37 MB
 **********************************************************************************************************************************


 PROGRAM * OPT (Geometry optimization)     Authors: F. Eckert and H.-J. Werner


 BFGS update of hessian

 *** Long output written to logfile /home/lme/Theoretische_Chemie/Nomodeco/ase_integration/g2_databank/NO2.molpro/run/NO2_1.molpro/NO2_1.log ***


 Geometry optimization using default procedure for command HF-SCF

 Geometry written to block  1 of record 700

 PQS Optimization using delocalized internal coordinates

 Point group c2v. Number of degrees of freedom:    2

 ITER.   ENERGY(OLD)    ENERGY(NEW)      DE          GRADMAX     GRADNORM    GRADRMS     STEPMAX     STEPLEN     STEPRMS   CPU-time
   1  -204.06508578  -204.07944517    -0.01435939  0.13296124  0.15881041  0.11229592  0.14544027  0.16152233  0.11421353      0.33
   2  -204.07944517  -204.07952181    -0.00007665  0.01165448  0.01197582  0.00846819  0.03389037  0.04208635  0.02975954      0.63
   3  -204.07952181  -204.07958557    -0.00006375  0.00587087  0.00732286  0.00517804  0.01292041  0.01747591  0.01235733      0.94
   4  -204.07958557  -204.07958566    -0.00000009  0.00037083  0.00049331  0.00034882  0.00041680  0.00052560  0.00037166      1.26
   5  -204.07958566  -204.07958567    -0.00000001  0.00011349  0.00015162  0.00010721  0.00009710  0.00012346  0.00008730      1.56

 END OF GEOMETRY OPTIMIZATION.

 Geometry written to block  1 of record 700

 Recomputing wavefunction for reoriented structure

 Current geometry (xyz format, in Angstrom)

    3
 HF-SCF000/6-311G(D,P)  ENERGY=-204.07958567
 N          0.0000000000        0.0000000000        0.2958048089
 O          0.0000000000        1.0723263417       -0.1294841748
 O          0.0000000000       -1.0723263417       -0.1294841748

 **********************************************************************************************************************************


 **********************************************************************************************************************************
 DATASETS  * FILE   NREC   LENGTH (MB)   RECORD NAMES
              1      19       29.98       500      610      700      900      950      970     1000      129      960     1100   
                                          VAR    BASINP    GEOM    SYMINP    ZMAT    AOBASIS   BASIS     P2S    ABASIS      S 
                                         1400     1410     1200     1210     1080     1600     1650     1300     1700   
                                           T        V       H0       H01     AOSYM     SMH    MOLCAS    ERIS     OPER   

              2       4        0.44       700     1000      520     2100   
                                         GEOM     BASIS   MCVARS     RHF  

 PROGRAMS   *        TOTAL      OPTG    HF-SCF       INT
 CPU TIMES  *         1.99      1.68      0.03      0.17
 REAL TIME  *         2.26 SEC
 DISK USED  *        35.74 MB
 **********************************************************************************************************************************


 PROGRAM * HESSIAN

 Computing numerical hessian using default procedure for command HF-SCF

 Symmetry elements for unique displacements: X  Y  

 Using AUTO symmetry option

 Running default procedure: HF-SCF000


 Numerically approximating hessian using central gradient differences

 Task list generated. Total number of displacements:      9

    5 tasks completed, CPU=2s Elapsed=2s

 Numerical HF-SCF000 hessian completed. CPU-time:     4.43 sec, Elapsed:     4.46 sec

 HF-SCF hessian saved to record  5300.2

 PROGRAM * FREQUENCIES (Calculation of harmonic vibrational spectra for HF-SCF)


 Permanent Dipole Moment [debye]
     1-   3    0.000000    0.000000    0.706782

 Dipole Moment Norm    0.7067824 [debye]

 Dipole Moment Derivatives [debye/ang]
              1             2             3             4             5             6             7             8
    1    1.66195098    0.00000000    0.00000000   -0.83098249    0.00000000    0.00000000   -0.83098249    0.00000000
    2    0.00000000   14.25142259    0.00000000    0.00000000   -7.12605783    2.49654582    0.00000000   -7.12605783
    3    0.00000000    0.00000000    2.46257378    0.00000000   -0.26587740   -1.23136905    0.00000000    0.26587740
              9
    1    0.00000000
    2   -2.49654582
    3   -1.23136905

 Projecting out rotations and translations

 Force Constants (Second Derivatives of the Energy) in [a.u.]
                             NX1         NY1         NZ1         OX2         OY2     
           NX1           0.0000000
           NY1           0.0000000   1.3294250
           NZ1           0.0000000   0.0000000   0.5752098
           OX2           0.0000000   0.0000000   0.0000000   0.0000000
           OY2           0.0000000  -0.6647125   0.3211042   0.0000000   0.8915453
           OZ2           0.0000000   0.2636277  -0.2876049   0.0000000  -0.2923660
           OX3           0.0000000   0.0000000   0.0000000  -0.0000000   0.0000000
           OY3           0.0000000  -0.6647125  -0.3211042   0.0000000  -0.2268328
           OZ3           0.0000000  -0.2636277  -0.2876049   0.0000000  -0.0287383
                             OZ2         OX3         OY3         OZ3     
           OZ2           0.1960804
           OX3           0.0000000   0.0000000
           OY3           0.0287383   0.0000000   0.8915453
           OZ3           0.0915245   0.0000000   0.2923660   0.1960804


 Atomic Masses
     1-   3   14.003070   15.994910   15.994910

 Mass weighted Second Derivative Matrix
                             NX1         NY1         NZ1         OX2         OY2     
           NX1           0.0000000
           NY1           0.0000000   0.0949381
           NZ1           0.0000000   0.0000000   0.0410774
           OX2           0.0000000   0.0000000   0.0000000   0.0000000
           OY2           0.0000000  -0.0444152   0.0214557   0.0000000   0.0557393
           OZ2           0.0000000   0.0176152  -0.0192174   0.0000000  -0.0182787
           OX3           0.0000000   0.0000000   0.0000000  -0.0000000   0.0000000
           OY3           0.0000000  -0.0444152  -0.0214557   0.0000000  -0.0141816
           OZ3           0.0000000  -0.0176152  -0.0192174   0.0000000  -0.0017967
                             OZ2         OX3         OY3         OZ3     
           OZ2           0.0122589
           OX3           0.0000000   0.0000000
           OY3           0.0017967   0.0000000   0.0557393
           OZ3           0.0057221   0.0000000   0.0182787   0.0122589


 Mass Weighted 2nd Derivative Matrix Eigenvalues
     1-   9    0.000000    0.000000    0.000000    0.000000    0.000000    0.000000    0.027704    0.101276    0.143033

 Mass Weighted 2nd Derivative Matrix Eigenvectors
              1             2             3             4             5             6             7             8
    1    0.00000000    0.00000000    0.00000000    1.00000000    0.00000000    0.00000000    0.00000000    0.00000000
    2    0.52963398    0.06091383    0.00000000    0.00000000    0.10492254    0.20252760    0.00000000    0.00000000
    3   -0.22104221    0.03580668    0.00000000    0.00000000    0.20985548    0.45856355    0.63175547    0.54444780
    4   -0.01867638    0.01411803    0.00000000    0.00000000    0.90519335   -0.42435465    0.00000000    0.00000000
    5    0.47080663    0.31492014    0.00000000    0.00000000    0.08206025    0.16479962   -0.46161583    0.53564057
    6   -0.47638887    0.66816140    0.00000000    0.00000000    0.14844952    0.35985434   -0.29555598   -0.25471058
    7    0.00000000    0.00000000    1.00000000    0.00000000    0.00000000    0.00000000    0.00000000    0.00000000
    8    0.47080663    0.31492014    0.00000000    0.00000000    0.08206025    0.16479962    0.46161583   -0.53564057
    9    0.00390772   -0.59162406    0.00000000    0.00000000    0.30011981    0.62033234   -0.29555598   -0.25471058
              9
    1    0.00000000
    2    0.81470926
    3    0.00000000
    4    0.00000000
    5   -0.38114777
    6    0.15116476
    7    0.00000000
    8   -0.38114777
    9   -0.15116476

   Low Vibration      Wavenumber
        Nr             [1/cm] 
        1                0.00
        2                0.00
        3                0.00
        4                0.00
        5                0.00
        6                0.00

     Vibration        Wavenumber
        Nr             [1/cm] 
        1              855.60
        2             1635.90
        3             1944.11

 FREQUENCIES * CALCULATION OF NORMAL MODES FOR HF-SCF


 Atomic Coordinates

  Nr  Atom  Charge       X              Y              Z

   1   N     7.00    0.000000000    0.000000000    0.558990075
   2   O     8.00    0.000000000    2.026403102   -0.244689628
   3   O     8.00    0.000000000   -2.026403102   -0.244689628

 Gradient norm at reference geometry: 0.30803D-03

 Normal Modes

                              1 A1        2 A1        3 B2 
 Wavenumbers [cm-1]          855.60     1635.90     1944.11
 Intensities [km/mol]         18.36        8.33      913.58
 Intensities [relative]        2.01        0.91      100.00
           NX1             -0.00000    -0.00000     0.00000
           NY1              0.00000     0.00000     0.21772
           NZ1              0.16883     0.14549    -0.00000
           OX2             -0.00000     0.00000     0.00000
           OY2             -0.11542     0.13393    -0.09530
           OZ2             -0.07390    -0.06369     0.03780
           OX3             -0.00000     0.00000     0.00000
           OY3              0.11542    -0.13393    -0.09530
           OZ3             -0.07390    -0.06369    -0.03780


 Normal Modes of low/zero frequencies

                                  1           2           3           4           5
 Wavenumbers [cm-1]            0.00        0.00        0.00        0.00        0.00
 Intensities [km/mol]          0.00        0.00        0.00        0.00        0.00
 Intensities [relative]        0.00        0.00        0.00        0.00        0.00
           NX1             -0.00000     0.00000     0.00000     0.26723     0.00000
           NY1              0.14154     0.01628    -0.00000     0.00000     0.02804
           NZ1             -0.05907     0.00957    -0.00000     0.00000     0.05608
           OX2             -0.00467     0.00353    -0.00000     0.00000     0.22633
           OY2              0.11772     0.07874    -0.00000     0.00000     0.02052
           OZ2             -0.11912     0.16707    -0.00000     0.00000     0.03712
           OX3             -0.00000     0.00000     0.25004     0.00000     0.00000
           OY3              0.11772     0.07874    -0.00000     0.00000     0.02052
           OZ3              0.00098    -0.14793     0.00000     0.00000     0.07504

                                  6
 Wavenumbers [cm-1]            0.00
 Intensities [km/mol]          0.00
 Intensities [relative]        0.00
           NX1             -0.00000
           NY1              0.05412
           NZ1              0.12254
           OX2             -0.10611
           OY2              0.04121
           OZ2              0.08998
           OX3              0.00000
           OY3              0.04121
           OZ3              0.15511


 Frequencies dumped to record   5400.2
 Frequency information read from record  5400.2

 Zero point energy:  0.01010508 [H]     2217.81 [1/CM]       26.53 [KJ/MOL]

 Recomputing wavefunction at initial geometry


 **********************************************************************************************************************************
 DATASETS  * FILE   NREC   LENGTH (MB)   RECORD NAMES
              1      19       29.98       500      610      700      900      950      970     1000      129      960     1100   
                                          VAR    BASINP    GEOM    SYMINP    ZMAT    AOBASIS   BASIS     P2S    ABASIS      S 
                                         1400     1410     1200     1210     1080     1600     1650     1300     1700   
                                           T        V       H0       H01     AOSYM     SMH    MOLCAS    ERIS     OPER   

              2       7        0.45       700     1000      520     2100     5300     5450     5400   
                                         GEOM     BASIS   MCVARS     RHF     HESS     NMOD     FREQ   

 PROGRAMS   *        TOTAL      FREQ      OPTG    HF-SCF       INT
 CPU TIMES  *         6.17      4.17      1.68      0.03      0.17
 REAL TIME  *         6.87 SEC
 DISK USED  *        47.18 MB
 **********************************************************************************************************************************

 Dump information in style MOLDEN to no2.molden                                                                      

 Molecular orbitals read from record     2100.2  Type=RHF/CANONICAL  
 Occupation numbers read from record     2100.2  Type=RHF/RHF  
 Orbital energies read from record       2100.2  Type=RHF/CANONICAL  
 Redundancy group numbers read from rec  2100.2  Type=RHF/RHF  

 DUMP ORBITAL  1.3 AS ORBITAL    1  occ=    2.0000  eig=  -20.6688  GROUP=   2
 DUMP ORBITAL  1.1 AS ORBITAL    2  occ=    2.0000  eig=  -20.6688  GROUP=   2
 DUMP ORBITAL  2.1 AS ORBITAL    3  occ=    2.0000  eig=  -15.8599  GROUP=   2
 DUMP ORBITAL  3.1 AS ORBITAL    4  occ=    2.0000  eig=   -1.6968  GROUP=   2
 DUMP ORBITAL  2.3 AS ORBITAL    5  occ=    2.0000  eig=   -1.5113  GROUP=   2
 DUMP ORBITAL  4.1 AS ORBITAL    6  occ=    2.0000  eig=   -0.9047  GROUP=   2
 DUMP ORBITAL  5.1 AS ORBITAL    7  occ=    2.0000  eig=   -0.7977  GROUP=   2
 DUMP ORBITAL  3.3 AS ORBITAL    8  occ=    2.0000  eig=   -0.7861  GROUP=   2
 DUMP ORBITAL  1.2 AS ORBITAL    9  occ=    2.0000  eig=   -0.7810  GROUP=   2
 DUMP ORBITAL  4.3 AS ORBITAL   10  occ=    2.0000  eig=   -0.5511  GROUP=   2
 DUMP ORBITAL  1.4 AS ORBITAL   11  occ=    2.0000  eig=   -0.5282  GROUP=   2
 DUMP ORBITAL  6.1 AS ORBITAL   12  occ=    1.0000  eig=   -0.4837  GROUP=   1

 Total charge:      23.000000
 Frequency information read from record  5400.2

 **********************************************************************************************************************************

 HF/6-311G(D,P) energy=   -204.079585666924

    OPTG(HF-SCF)          HF-SCF
   -204.07958567   -204.06508578
 **********************************************************************************************************************************
 Molpro calculation terminated
