
 Working directory              : /tmp/lme/molpro.AbnjJmz4hL/
 Global scratch directory       : /tmp/lme/molpro.AbnjJmz4hL/
 Wavefunction directory         : /home/lme/wfu/
 Main file repository           : /tmp/lme/molpro.AbnjJmz4hL/

 id        : liedlgroup

 Nodes     nprocs
 sv1-c724     1
 GA implementation: MPI file
 GA implementation (serial work in mppx): MPI file

 Using customized tuning parameters: mindgm=1; mindgv=20; mindgc=4; mindgr=1; noblas=0; minvec=7
 default implementation of scratch files=df  


 Variables initialized (1042), CPU time= 0.01 sec
 
                     orient,mass
                     geometry=initial.xyz
 Including file /home/lme/Theoretische_Chemie/Nomodeco/ase_databank_integration/test/CH3CO.molpro/run/CH3CO_1.molpro/initial.xyz
                     mass, iso
                     basis=6-311g(d,p)
                     {hf
                     start, atden}
                     optg;
                     {frequencies, symm=auto, print=0, analytical}
                     put, molden, CH3CO.molden
 Commands initialized (847), CPU time= 0.00 sec, 718 directives.
 Default parameters read. Elapsed time= 0.06 sec

 Checking input...
 Passed
1


                                         ***  PROGRAM SYSTEM MOLPRO  ***
                                       Copyright, TTI GmbH Stuttgart, 2015
                                    Version 2024.1 linked Wed Jan 31 11:42:09 2024


 **********************************************************************************************************************************
 LABEL *                                                                                                                                                                 
  (6 PROC) 64 bit serial version                                                         DATE: 30-Sep-24          TIME: 15:13:27  
 **********************************************************************************************************************************

 SHA1:             675817fde4514a4a933b69e420913a90cee4ef91
 **********************************************************************************************************************************

 Memory per process:        32 MW
 Total memory per node:     32 MW

 GA preallocation disabled
 GA check disabled

 Variable memory set to 32.0 MW

 ZCENTRE=MASS


 Geometry recognized as XYZ



 Using masses of most abundant isotopes

 **********************************************************************************************************************************
 SETTING BASIS          =    6-311G(D,P)


 Recomputing integrals since basis changed


 Using spherical harmonics

 Library entry C      S 6-311G               selected for orbital group  1
 Library entry C      P 6-311G               selected for orbital group  1
 Library entry C      D 6-311G*              selected for orbital group  1
 Library entry H      S 6-311G               selected for orbital group  2
 Library entry H      P 6-311G**             selected for orbital group  2
 Library entry O      S 6-311G               selected for orbital group  3
 Library entry O      P 6-311G               selected for orbital group  3
 Library entry O      D 6-311G*              selected for orbital group  3


 PROGRAM * SEWARD (Integral evaluation for generally contracted gaussian basis sets)     Author: Roland Lindh, 1990

 Geometry written to block  1 of record 700

 Orientation using atomic masses  
 Molecule type: Asymmetric top
 Symmetry elements: Y
 Rotational constants:       9.9328359      9.3768239     82.2242413 GHz

 Point group  Cs  



 ATOMIC COORDINATES

 NR  ATOM    CHARGE       X              Y              Z

   1  C       6.00   -0.245691161    0.000000000   -2.404428895
   2  C       6.00    0.815314163    0.000000000    0.250455412
   3  H       1.00   -2.311251305    0.000000000   -2.381381590
   4  H       1.00    0.461348622    1.664963989   -3.397046163
   5  H       1.00    0.461348622   -1.664963989   -3.397046163
   6  O       8.00   -0.339861652    0.000000000    2.194132620

 Bond lengths in Bohr (Angstrom)

 1-2  2.859045817  1-3  2.065688720  1-4  2.063322413  1-5  2.063322413  2-6  2.261042294
     ( 1.512941891)     ( 1.093115396)     ( 1.091863200)     ( 1.091863200)     ( 1.196492055)

 Bond angles

  1-2-6  127.49216594   2-1-3  111.14448898   2-1-4  108.63615356   2-1-5  108.63615356

  3-1-4  110.36605396   3-1-5  110.36605396   4-1-5  107.59479917

 NUCLEAR CHARGE:                   23
 NUMBER OF PRIMITIVE AOS:         120
 NUMBER OF SYMMETRY AOS:          117
 NUMBER OF CONTRACTIONS:           72   (   50A'  +   22A"  )
 NUMBER OF INNER CORE ORBITALS:     0   (    0A'  +    0A"  )
 NUMBER OF OUTER CORE ORBITALS:     3   (    3A'  +    0A"  )
 NUMBER OF VALENCE ORBITALS:       15   (   11A'  +    4A"  )


 NUCLEAR REPULSION ENERGY   62.63966045


 Eigenvalues of metric

         1 0.394E-02 0.123E-01 0.227E-01 0.264E-01 0.376E-01 0.457E-01 0.576E-01 0.833E-01
         2 0.230E-01 0.462E-01 0.942E-01 0.144E+00 0.211E+00 0.323E+00 0.349E+00 0.367E+00


 Contracted 2-electron integrals neglected if value below      1.0D-11
 AO integral compression algorithm  1   Integral accuracy      1.0D-11

     8.913 MB (compressed) written to integral file ( 50.6%)


 NUMBER OF SORTED TWO-ELECTRON INTEGRALS:    1813306.     BUFFER LENGTH:  32768
 NUMBER OF SEGMENTS:   1  SEGMENT LENGTH:    1813306      RECORD LENGTH: 524288

 Memory used in sort:       2.37 MW

 SORT1 READ     2241912. AND WROTE     1694266. INTEGRALS IN      5 RECORDS. CPU TIME:     0.03 SEC, REAL TIME:     0.03 SEC
 SORT2 READ     1694266. AND WROTE     1813306. INTEGRALS IN     34 RECORDS. CPU TIME:     0.06 SEC, REAL TIME:     0.07 SEC

 FILE SIZES:   FILE 1:    39.1 MBYTE,  FILE 4:    21.0 MBYTE,   TOTAL:     60.2 MBYTE

 OPERATOR DM      FOR CENTER  0  COORDINATES:    0.000000    0.000000    0.000000


 **********************************************************************************************************************************
 DATASETS  * FILE   NREC   LENGTH (MB)   RECORD NAMES
              1      19       35.69       500      610      700      900      950      970     1000      129      960     1100   
                                          VAR    BASINP    GEOM    SYMINP    ZMAT    AOBASIS   BASIS     P2S    ABASIS      S 
                                         1400     1410     1200     1210     1080     1600     1650     1300     1700   
                                           T        V       H0       H01     AOSYM     SMH    MOLCAS    ERIS     OPER   

 PROGRAMS   *        TOTAL       INT
 CPU TIMES  *         0.48      0.37
 REAL TIME  *         0.59 SEC
 DISK USED  *        57.80 MB
 **********************************************************************************************************************************


 Program * Restricted Hartree-Fock

 Orbital guess generated from atomic densities.

 Initial alpha occupancy:  10   2
 Initial beta  occupancy:   9   2

 NELEC=   23   SYM=1   MS2= 1   THRE=1.0D-08   THRD=1.0D-06   THRG=1.0D-06  HFMA2=F  DIIS_START=2   DIIS_MAX=10   DIIS_INCORE=F

 Level shifts:    0.00 (CLOSED)    0.00 (OPEN)    0.30 (GAP_MIN)

 ITER           ETOT              DE          GRAD        DDIFF     DIIS  NEXP   TIME(IT)  TIME(TOT)  DIAG
   1     -152.27208739    -152.27208739     0.00D+00     0.71D-01     0     0       0.01      0.04    start
   2     -152.30410011      -0.03201272     0.11D-01     0.96D-02     1     0       0.01      0.05    diag2
   3     -152.32946737      -0.02536726     0.85D-02     0.41D-02     2     0       0.01      0.06    diag2
   4     -152.33098881      -0.00152144     0.14D-02     0.12D-02     3     0       0.01      0.07    diag2
   5     -152.33122708      -0.00023827     0.38D-03     0.54D-03     4     0       0.01      0.08    diag2
   6     -152.33129623      -0.00006915     0.16D-03     0.21D-03     5     0       0.01      0.09    diag2
   7     -152.33133539      -0.00003915     0.92D-04     0.16D-03     6     0       0.02      0.11    diag2
   8     -152.33135525      -0.00001986     0.55D-04     0.19D-03     7     0       0.01      0.12    fixocc
   9     -152.33135579      -0.00000054     0.12D-04     0.32D-04     8     0       0.01      0.13    diag2
  10     -152.33135581      -0.00000002     0.33D-05     0.60D-05     9     0       0.00      0.13    diag2/orth
  11     -152.33135581      -0.00000000     0.74D-06     0.18D-05     9     0       0.02      0.15    diag2
  12     -152.33135581      -0.00000000     0.20D-06     0.57D-06     9     0       0.01      0.16    diag2
  13     -152.33135581      -0.00000000     0.65D-07     0.99D-07     0     0       0.00      0.16    diag

 Final alpha occupancy:  10   2
 Final beta  occupancy:   9   2

 !RHF STATE 1.1 Energy               -152.331355810362
  RHF One-electron energy            -330.966960724987
  RHF Two-electron energy             115.995944468964
  RHF Kinetic energy                  152.139700044052
  RHF Nuclear energy                   62.639660445661
  RHF Virial quotient                  -1.001259735403

 !RHF STATE 1.1 Dipole moment           0.08547532     0.00000000    -1.19352488
 Dipole moment /Debye                   0.21725659     0.00000000    -3.03363764

 Orbital energies:

           1.1          2.1          3.1          4.1          5.1          6.1          7.1          8.1          9.1         10.1
    -20.581716   -11.337075   -11.262768    -1.413734    -1.022961    -0.746057    -0.631173    -0.625621    -0.533320    -0.381112

          11.1         12.1
      0.153936     0.211693

           1.2          2.2          3.2          4.2
     -0.616105    -0.526450     0.141496     0.207280


 HOMO     10.1    -0.381112 =     -10.3706eV
 LUMO      3.2     0.141496 =       3.8503eV
 LUMO-HOMO         0.522608 =      14.2209eV

 Orbitals saved in record  2100.2


 **********************************************************************************************************************************
 DATASETS  * FILE   NREC   LENGTH (MB)   RECORD NAMES
              1      19       35.69       500      610      700      900      950      970     1000      129      960     1100   
                                          VAR    BASINP    GEOM    SYMINP    ZMAT    AOBASIS   BASIS     P2S    ABASIS      S 
                                         1400     1410     1200     1210     1080     1600     1650     1300     1700   
                                           T        V       H0       H01     AOSYM     SMH    MOLCAS    ERIS     OPER   

              2       4        0.56       700     1000      520     2100   
                                         GEOM     BASIS   MCVARS     RHF  

 PROGRAMS   *        TOTAL    HF-SCF       INT
 CPU TIMES  *         0.65      0.17      0.37
 REAL TIME  *         0.77 SEC
 DISK USED  *        57.80 MB
 **********************************************************************************************************************************


 PROGRAM * OPT (Geometry optimization)     Authors: F. Eckert and H.-J. Werner


 BFGS update of hessian

 *** Long output written to logfile /home/lme/Theoretische_Chemie/Nomodeco/ase_databank_integration/test/CH3CO.molpro/run/CH3CO_1.molpro/CH3CO_1.log ***


 Geometry optimization using default procedure for command HF-SCF

 Geometry written to block  1 of record 700

 PQS Optimization using delocalized internal coordinates

 Point group cs. Number of degrees of freedom:    8

 ITER.   ENERGY(OLD)    ENERGY(NEW)      DE          GRADMAX     GRADNORM    GRADRMS     STEPMAX     STEPLEN     STEPRMS   CPU-time
   1  -152.33135581  -152.33479168    -0.00343587  0.06637488  0.07850118  0.02775436  0.06192196  0.09345463  0.03304120      1.04
   2  -152.33479168  -152.33481725    -0.00002557  0.00319342  0.00478360  0.00169126  0.01045861  0.01398775  0.00494541      2.03
   3  -152.33481725  -152.33481776    -0.00000050  0.00058962  0.00079438  0.00028086  0.00101006  0.00183812  0.00064987      3.09
   4  -152.33481776  -152.33481777    -0.00000001  0.00007151  0.00008263  0.00002921  0.00031317  0.00038254  0.00013525      4.08

 END OF GEOMETRY OPTIMIZATION.

 Geometry written to block  1 of record 700

 Recomputing wavefunction for reoriented structure

 Current geometry (xyz format, in Angstrom)

    6
 HF-SCF000/6-311G(D,P)  ENERGY=-152.33481777
 C         -0.1191493412        0.0000000000       -1.2712918121
 C          0.4029294018        0.0000000000        0.1449190143
 H         -1.2036205967        0.0000000000       -1.2708794943
 H          0.2604196191        0.8767779554       -1.7827347576
 H          0.2604196191       -0.8767779554       -1.7827347576
 O         -0.1698813313        0.0000000000        1.1497824629

 **********************************************************************************************************************************


 **********************************************************************************************************************************
 DATASETS  * FILE   NREC   LENGTH (MB)   RECORD NAMES
              1      19       35.72       500      610      700      900      950      970     1000      129      960     1100   
                                          VAR    BASINP    GEOM    SYMINP    ZMAT    AOBASIS   BASIS     P2S    ABASIS      S 
                                         1400     1410     1200     1210     1080     1600     1650     1300     1700   
                                           T        V       H0       H01     AOSYM     SMH    MOLCAS    ERIS     OPER   

              2       4        0.56       700     1000      520     2100   
                                         GEOM     BASIS   MCVARS     RHF  

 PROGRAMS   *        TOTAL      OPTG    HF-SCF       INT
 CPU TIMES  *         5.16      4.51      0.17      0.37
 REAL TIME  *         5.65 SEC
 DISK USED  *        58.28 MB
 **********************************************************************************************************************************


 PROGRAM * HESSIAN

 Computing numerical hessian using default procedure for command HF-SCF

 Symmetry elements for unique displacements: Y  

 Using AUTO symmetry option

 Running default procedure: HF-SCF000


 Numerically approximating hessian using central gradient differences

 Task list generated. Total number of displacements:     26

    5 tasks completed, CPU=6s Elapsed=6s
   10 tasks completed, CPU=12s Elapsed=12s
   15 tasks completed, CPU=18s Elapsed=18s
   20 tasks completed, CPU=26s Elapsed=26s
   25 tasks completed, CPU=32s Elapsed=32s

 Numerical HF-SCF000 hessian completed. CPU-time:    33.94 sec, Elapsed:    34.00 sec

 HF-SCF hessian saved to record  5300.2

 PROGRAM * FREQUENCIES (Calculation of harmonic vibrational spectra for HF-SCF)


 Permanent Dipole Moment [debye]
     1-   3    0.128432    0.000000   -2.836282

 Dipole Moment Norm    2.8391883 [debye]

 Dipole Moment Derivatives [debye/ang]
              1             2             3             4             5             6             7             8
    1    0.82783812    0.00000000    0.14284790    1.54810204    0.00000000   -1.35398788   -0.51567923    0.00000000
    2    0.00000000    0.95408605    0.00000000    0.00000000   -0.10332188    0.00000000    0.00000000    0.43228048
    3   -0.81162364    0.00000000   -0.78198628   -1.31026904    0.00000000    6.56353935   -0.24035421    0.00000000
              9            10            11            12            13            14            15            16
    1    0.12798675    0.24447146   -0.23212494   -0.01075344    0.24447146    0.23212494   -0.01075344   -2.34966351
    2    0.00000000   -0.38283339   -0.09991832    0.09494263    0.38283339   -0.09991832   -0.09494263    0.00000000
    3   -0.03236156    0.00683698    0.36191149    0.22954019    0.00683698   -0.36191149    0.22954019    2.34802025
             17            18
    1    0.00000000    1.10437858
    2   -1.08426138    0.00000000
    3    0.00000000   -6.20872486

 Projecting out rotations and translations

 Force Constants (Second Derivatives of the Energy) in [a.u.]
                             CX1         CY1         CZ1         CX2         CY2     
           CX1           0.6176619
           CY1           0.0000000   0.5806045
           CZ1          -0.0544722  -0.0000000   0.5051610
           CX2          -0.1239029   0.0000000  -0.0323778   0.4952526
           CY2           0.0000000  -0.0475400  -0.0000000  -0.0000000   0.0422959
           CZ2          -0.0585652  -0.0000000  -0.1633991  -0.4179955  -0.0000000
           HX3          -0.3423942   0.0000000   0.0035573  -0.0174887   0.0000000
           HY3           0.0000000  -0.0594675   0.0000000  -0.0000000   0.0045507
           HZ3           0.0041576  -0.0000000  -0.0552141  -0.0459476   0.0000000
           HX4          -0.0922740  -0.0825465   0.0453807   0.0042161   0.0115036
           HY4          -0.0832734  -0.2422113   0.1130623   0.0015198   0.0035565
           HZ4           0.0461530   0.1178251  -0.1155724   0.0156874   0.0232224
           HX5          -0.0922740   0.0825465   0.0453807   0.0042161  -0.0115036
           HY5           0.0832734  -0.2422113  -0.1130623  -0.0015198   0.0035565
           HZ5           0.0461530  -0.1178251  -0.1155724   0.0156874  -0.0232224
           OX6           0.0331833   0.0000000  -0.0074686  -0.3622932  -0.0000000
           OY6          -0.0000000   0.0108256   0.0000000   0.0000000  -0.0064195
           OZ6           0.0165739  -0.0000000  -0.0554029   0.4649461  -0.0000000
                             CZ2         HX3         HY3         HZ3         HX4     
           CZ2           1.0424854
           HX3           0.0001571   0.3688314
           HY3          -0.0000000  -0.0000000   0.0519389
           HZ3          -0.0029031  -0.0018253   0.0000000   0.0549072
           HX4          -0.0026885  -0.0082676  -0.0294947   0.0172709   0.0916619
           HY4          -0.0016850   0.0007833   0.0027666  -0.0024554   0.0912862
           HZ4          -0.0170246   0.0000605  -0.0014546   0.0005262  -0.0509770
           HX5          -0.0026885  -0.0082676   0.0294947   0.0172709   0.0042421
           HY5           0.0016850  -0.0007833   0.0027666   0.0024554   0.0104015
           HZ5          -0.0170246   0.0000605   0.0014546   0.0005262  -0.0070516
           OX6           0.4817806   0.0075868   0.0000000   0.0090735   0.0004216
           OY6           0.0000000  -0.0000000  -0.0025554  -0.0000000  -0.0011502
           OZ6          -0.8421339  -0.0020100  -0.0000000   0.0021576  -0.0019345
                             HY4         HZ4         HX5         HY5         HZ5     
           HY4           0.2606022
           HZ4          -0.1227200   0.1246560
           HX5          -0.0104015  -0.0070516   0.0916619
           HY5          -0.0229355  -0.0150813  -0.0912862   0.2606022
           HZ5           0.0150813   0.0117118  -0.0509770   0.1227200   0.1246560
           OX6           0.0000856  -0.0038722   0.0004216  -0.0000856  -0.0038722
           OY6          -0.0017786  -0.0017917   0.0011502  -0.0017786   0.0017917
           OZ6          -0.0012832  -0.0042970  -0.0019345   0.0012832  -0.0042970
                             OX6         OY6         OZ6     
           OX6           0.3206799
           OY6           0.0000000   0.0017064
           OZ6          -0.4756409   0.0000000   0.9039733


 Atomic Masses
     1-   6   12.000000   12.000000    1.007825    1.007825    1.007825   15.994910

 Mass weighted Second Derivative Matrix
                             CX1         CY1         CZ1         CX2         CY2     
           CX1           0.0514718
           CY1           0.0000000   0.0483837
           CZ1          -0.0045394  -0.0000000   0.0420967
           CX2          -0.0103252   0.0000000  -0.0026982   0.0412710
           CY2           0.0000000  -0.0039617  -0.0000000  -0.0000000   0.0035247
           CZ2          -0.0048804  -0.0000000  -0.0136166  -0.0348330  -0.0000000
           HX3          -0.0984562   0.0000000   0.0010229  -0.0050289   0.0000000
           HY3           0.0000000  -0.0171000   0.0000000  -0.0000000   0.0013086
           HZ3           0.0011955  -0.0000000  -0.0158769  -0.0132123   0.0000000
           HX4          -0.0265336  -0.0237364   0.0130493   0.0012124   0.0033079
           HY4          -0.0239455  -0.0696484   0.0325113   0.0004370   0.0010227
           HZ4           0.0132714   0.0338809  -0.0332331   0.0045109   0.0066776
           HX5          -0.0265336   0.0237364   0.0130493   0.0012124  -0.0033079
           HY5           0.0239455  -0.0696484  -0.0325113  -0.0004370   0.0010227
           HZ5           0.0132714  -0.0338809  -0.0332331   0.0045109  -0.0066776
           OX6           0.0023952   0.0000000  -0.0005391  -0.0261504  -0.0000000
           OY6          -0.0000000   0.0007814   0.0000000   0.0000000  -0.0004634
           OZ6           0.0011963  -0.0000000  -0.0039990   0.0335599  -0.0000000
                             CZ2         HX3         HY3         HZ3         HX4     
           CZ2           0.0868738
           HX3           0.0000452   0.3659677
           HY3          -0.0000000  -0.0000000   0.0515357
           HZ3          -0.0008348  -0.0018112   0.0000000   0.0544809
           HX4          -0.0007731  -0.0082035  -0.0292657   0.0171368   0.0909502
           HY4          -0.0004845   0.0007773   0.0027452  -0.0024363   0.0905775
           HZ4          -0.0048955   0.0000600  -0.0014433   0.0005222  -0.0505812
           HX5          -0.0007731  -0.0082035   0.0292657   0.0171368   0.0042091
           HY5           0.0004845  -0.0007773   0.0027452   0.0024363   0.0103207
           HZ5          -0.0048955   0.0000600   0.0014433   0.0005222  -0.0069969
           OX6           0.0347750   0.0018896   0.0000000   0.0022599   0.0001050
           OY6           0.0000000  -0.0000000  -0.0006365  -0.0000000  -0.0002865
           OZ6          -0.0607854  -0.0005006  -0.0000000   0.0005374  -0.0004818
                             HY4         HZ4         HX5         HY5         HZ5     
           HY4           0.2585789
           HZ4          -0.1217671   0.1236881
           HX5          -0.0103207  -0.0069969   0.0909502
           HY5          -0.0227574  -0.0149642  -0.0905775   0.2585789
           HZ5           0.0149642   0.0116209  -0.0505812   0.1217671   0.1236881
           OX6           0.0000213  -0.0009644   0.0001050  -0.0000213  -0.0009644
           OY6          -0.0004430  -0.0004462   0.0002865  -0.0004430   0.0004462
           OZ6          -0.0003196  -0.0010703  -0.0004818   0.0003196  -0.0010703
                             OX6         OY6         OZ6     
           OX6           0.0200489
           OY6           0.0000000   0.0001067
           OZ6          -0.0297370   0.0000000   0.0565163


 Mass Weighted 2nd Derivative Matrix Eigenvalues
     1-  10    0.000000    0.000000    0.000000    0.000000    0.000000    0.000000    0.000483    0.009978    0.032718    0.040610
    11-  18    0.050959    0.083840    0.093956    0.094237    0.173574    0.381893    0.402851    0.403614

 Mass Weighted 2nd Derivative Matrix Eigenvectors
              1             2             3             4             5             6             7             8
    1    0.79933407   -0.06466927   -0.00140474    0.02028984   -0.02131476    0.02963840    0.00000000   -0.05719590
    2    0.05390429    0.42538936    0.48667067   -0.40051096    0.33528465    0.01277200   -0.04623983    0.00000000
    3   -0.06012496   -0.08792285   -0.13169372   -0.09929126    0.17620283    0.46105294    0.00000000    0.34790630
    4    0.27947957    0.00566483    0.26138183    0.27310000   -0.11378376    0.22296554    0.00000000    0.53135303
    5   -0.02196346   -0.50612401    0.39745877   -0.04022323    0.42775283   -0.15799198    0.54221699    0.00000000
    6    0.13151670   -0.11385115   -0.22856862   -0.19248841    0.21029104    0.38978390    0.00000000    0.06926257
    7    0.23160505   -0.01873537   -0.00038492    0.00590137   -0.00618487    0.00860559    0.00000000   -0.01443350
    8    0.04586220    0.53586036   -0.01481929   -0.02536591    0.13572378    0.04660354    0.30441499    0.00000000
    9   -0.13278931   -0.00987187    0.02015185    0.02732822    0.03054349    0.17651697    0.00000000    0.44658424
   10    0.31050650    0.30748014   -0.15389442    0.05271870    0.03466298    0.02304863    0.28043298   -0.18139269
   11    0.00771880    0.00462359    0.23200701   -0.20126895    0.06729702   -0.00090596   -0.29884572    0.00882310
   12    0.02755211    0.01321268    0.00387341   -0.14007351    0.03016801    0.13644687   -0.27255228   -0.00224404
   13    0.26160489   -0.35968477    0.09807495   -0.09387568   -0.02766193   -0.04633642   -0.28043298   -0.18139269
   14    0.00771880    0.00462359    0.23200701   -0.20126895    0.06729702   -0.00090596   -0.29884572   -0.00882310
   15    0.01835550   -0.07509917   -0.12102605    0.04325126    0.08632450    0.10074938    0.27255228   -0.00224404
   16   -0.10319061    0.06415643    0.51703926    0.52239562   -0.20711403    0.41578723    0.00000000   -0.31600942
   17    0.01728541    0.08227127   -0.15415653    0.56284136    0.70315288   -0.17360465   -0.35598004    0.00000000
   18   -0.09091516   -0.09859957   -0.14117442   -0.10417784    0.19960485    0.54028892    0.00000000   -0.47230959
              9            10            11            12            13            14            15            16
    1    0.03899047    0.00000000    0.45210406   -0.14718433   -0.18691249    0.00000000    0.01301231   -0.08256121
    2    0.00000000   -0.41033671    0.00000000    0.00000000    0.00000000   -0.20647885    0.00000000    0.00000000
    3    0.62188714    0.00000000   -0.00850653   -0.41681238    0.02008894    0.00000000   -0.04263637   -0.13919124
    4   -0.31841472    0.00000000   -0.42825966    0.02316192   -0.02863195    0.00000000   -0.38438462   -0.00225236
    5    0.00000000    0.28412642    0.00000000    0.00000000    0.00000000   -0.03320235    0.00000000    0.00000000
    6   -0.41406143    0.00000000   -0.23617671    0.01839154   -0.03690320    0.00000000    0.67120898    0.00294768
    7    0.01267033    0.00000000    0.12510279   -0.03420296   -0.03754936    0.00000000   -0.00723369    0.65474556
    8    0.00000000    0.29902919    0.00000000    0.00000000    0.00000000    0.71204366    0.00000000    0.00000000
    9   -0.08685194    0.00000000    0.60041646    0.46474204    0.40392606    0.00000000    0.04810042   -0.00938126
   10    0.19319971    0.16868327   -0.23726312    0.23294258    0.42387138   -0.44677163    0.00058675   -0.18520374
   11   -0.02450195    0.13380665    0.07567737    0.20259206   -0.36726697    0.06321203   -0.01668997   -0.42421821
   12    0.27226656    0.53276515   -0.13284069    0.44493614   -0.28742616   -0.14499724   -0.03638757    0.24133784
   13    0.19319971   -0.16868327   -0.23726312    0.23294258    0.42387138    0.44677163    0.00058675   -0.18520374
   14    0.02450195    0.13380665   -0.07567737   -0.20259206    0.36726697    0.06321203    0.01668997    0.42421821
   15    0.27226656   -0.53276515   -0.13284069    0.44493614   -0.28742616    0.14499724   -0.03638757    0.24133784
   16    0.14185405    0.00000000    0.06705779   -0.00093556   -0.01667497    0.00000000    0.32319023    0.00208894
   17    0.00000000   -0.03291771    0.00000000    0.00000000    0.00000000   -0.00286590    0.00000000    0.00000000
   18   -0.29489635    0.00000000    0.12791170    0.00506739    0.05746915    0.00000000   -0.53825270   -0.00079539
             17            18
    1    0.00000000   -0.28698718
    2   -0.30521153    0.00000000
    3    0.00000000    0.12104694
    4    0.00000000   -0.00717336
    5   -0.00113096    0.00000000
    6    0.00000000    0.00617845
    7    0.00000000    0.70605762
    8   -0.01418922    0.00000000
    9    0.00000000   -0.00131502
   10    0.24084025    0.14624417
   11    0.53837175    0.37071084
   12   -0.32476536   -0.20821126
   13   -0.24084025    0.14624417
   14    0.53837175   -0.37071084
   15    0.32476536   -0.20821126
   16    0.00000000    0.00413987
   17   -0.00137570    0.00000000
   18    0.00000000   -0.00533908

   Low Vibration      Wavenumber
        Nr             [1/cm] 
        1                0.00
        2                0.00
        3                0.00
        4                0.00
        5                0.00
        6                0.00

     Vibration        Wavenumber
        Nr             [1/cm] 
        1              112.92
        2              513.47
        3              929.82
        4             1035.91
        5             1160.42
        6             1488.43
        7             1575.67
        8             1578.03
        9             2141.64
       10             3176.69
       11             3262.69
       12             3265.78

 FREQUENCIES * CALCULATION OF NORMAL MODES FOR HF-SCF


 Atomic Coordinates

  Nr  Atom  Charge       X              Y              Z

   1   C     6.00   -0.225159623    0.000000000   -2.402393349
   2   C     6.00    0.761426217    0.000000000    0.273857247
   3   H     1.00   -2.274513286    0.000000000   -2.401614182
   4   H     1.00    0.492121757    1.656870208   -3.368880445
   5   H     1.00    0.492121757   -1.656870208   -3.368880445
   6   O     8.00   -0.321029190    0.000000000    2.172773958

 Gradient norm at reference geometry: 0.11309D-03

 Normal Modes

                              1 A``       2 A`        3 A`        4 A``       5 A` 
 Wavenumbers [cm-1]          112.92      513.47      929.82     1035.91     1160.42
 Intensities [km/mol]          0.00        9.32        1.16        0.06       16.32
 Intensities [relative]        0.00        3.43        0.43        0.02        6.01
           CX1             -0.00000    -0.01651     0.01126     0.00000     0.13051
           CY1             -0.01335     0.00000     0.00000    -0.11845     0.00000
           CZ1             -0.00000     0.10043     0.17952     0.00000    -0.00246
           CX2             -0.00000     0.15339    -0.09192    -0.00000    -0.12363
           CY2              0.15652    -0.00000     0.00000     0.08202    -0.00000
           CZ2             -0.00000     0.01999    -0.11953    -0.00000    -0.06818
           HX3             -0.00000    -0.01438     0.01262     0.00000     0.12462
           HY3              0.30323    -0.00000    -0.00000     0.29787    -0.00000
           HZ3             -0.00000     0.44485    -0.08651     0.00000     0.59808
           HX4              0.27934    -0.18069     0.19245     0.16803    -0.23634
           HY4             -0.29768     0.00879    -0.02441     0.13329     0.07538
           HZ4             -0.27149    -0.00224     0.27121     0.53069    -0.13232
           HX5             -0.27934    -0.18069     0.19245    -0.16803    -0.23634
           HY5             -0.29768    -0.00879     0.02441     0.13329    -0.07538
           HZ5              0.27149    -0.00224     0.27121    -0.53069    -0.13232
           OX6             -0.00000    -0.07901     0.03547     0.00000     0.01677
           OY6             -0.08901     0.00000     0.00000    -0.00823     0.00000
           OZ6             -0.00000    -0.11810    -0.07374    -0.00000     0.03198

                              6 A`        7 A`        8 A``       9 A`       10 A` 
 Wavenumbers [cm-1]         1488.43     1575.67     1578.03     2141.64     3176.69
 Intensities [km/mol]         10.30       19.19       12.89      271.53        6.66
 Intensities [relative]        3.79        7.07        4.75      100.00        2.45
           CX1             -0.04249    -0.05396     0.00000     0.00376    -0.02383
           CY1              0.00000    -0.00000    -0.05961    -0.00000    -0.00000
           CZ1             -0.12032     0.00580    -0.00000    -0.01231    -0.04018
           CX2              0.00669    -0.00827     0.00000    -0.11096    -0.00065
           CY2             -0.00000    -0.00000    -0.00958    -0.00000    -0.00000
           CZ2              0.00531    -0.01065     0.00000     0.19376     0.00085
           HX3             -0.03407    -0.03740     0.00000    -0.00721     0.65220
           HY3             -0.00000     0.00000     0.70927    -0.00000    -0.00000
           HZ3              0.46293     0.40235    -0.00000     0.04791    -0.00934
           HX4              0.23204     0.42222    -0.44503     0.00058    -0.18448
           HY4              0.20180    -0.36584     0.06297    -0.01663    -0.42257
           HZ4              0.44321    -0.28631    -0.14443    -0.03625     0.24040
           HX5              0.23204     0.42222     0.44503     0.00058    -0.18448
           HY5             -0.20180     0.36584     0.06297     0.01663     0.42257
           HZ5              0.44321    -0.28631     0.14443    -0.03625     0.24040
           OX6             -0.00023    -0.00417     0.00000     0.08081     0.00052
           OY6              0.00000    -0.00000    -0.00072    -0.00000    -0.00000
           OZ6              0.00127     0.01437    -0.00000    -0.13458    -0.00020

                             11 A``      12 A` 
 Wavenumbers [cm-1]         3262.69     3265.78
 Intensities [km/mol]          8.26       12.15
 Intensities [relative]        3.04        4.48
           CX1              0.00000    -0.08285
           CY1             -0.08811    -0.00000
           CZ1             -0.00000     0.03494
           CX2              0.00000    -0.00207
           CY2             -0.00033    -0.00000
           CZ2             -0.00000     0.00178
           HX3             -0.00000     0.70331
           HY3             -0.01413    -0.00000
           HZ3              0.00000    -0.00131
           HX4              0.23990     0.14568
           HY4              0.53628     0.36927
           HZ4             -0.32350    -0.20740
           HX5             -0.23990     0.14568
           HY5              0.53628    -0.36927
           HZ5              0.32350    -0.20740
           OX6             -0.00000     0.00104
           OY6             -0.00034    -0.00000
           OZ6              0.00000    -0.00133


 Normal Modes of low/zero frequencies

                                  1           2           3           4           5
 Wavenumbers [cm-1]            0.00        0.00        0.00        0.00        0.00
 Intensities [km/mol]          0.00        0.00        0.00        0.00        0.00
 Intensities [relative]        0.00        0.00        0.00        0.00        0.00
           CX1              0.23075    -0.01867    -0.00041     0.00586    -0.00615
           CY1              0.01556     0.12280     0.14049    -0.11562     0.09679
           CZ1             -0.01736    -0.02538    -0.03802    -0.02866     0.05087
           CX2              0.08068     0.00164     0.07545     0.07884    -0.03285
           CY2             -0.00634    -0.14611     0.11474    -0.01161     0.12348
           CZ2              0.03797    -0.03287    -0.06598    -0.05557     0.06071
           HX3              0.23070    -0.01866    -0.00038     0.00588    -0.00616
           HY3              0.04568     0.53378    -0.01476    -0.02527     0.13520
           HZ3             -0.13227    -0.00983     0.02007     0.02722     0.03042
           HX4              0.30930     0.30628    -0.15330     0.05251     0.03453
           HY4              0.00769     0.00461     0.23110    -0.20049     0.06704
           HZ4              0.02744     0.01316     0.00386    -0.13953     0.03005
           HX5              0.26059    -0.35829     0.09769    -0.09351    -0.02755
           HY5              0.00769     0.00461     0.23110    -0.20049     0.06704
           HZ5              0.01828    -0.07481    -0.12056     0.04308     0.08599
           OX6             -0.02580     0.01604     0.12928     0.13062    -0.05179
           OY6              0.00432     0.02057    -0.03855     0.14073     0.17582
           OZ6             -0.02273    -0.02465    -0.03530    -0.02605     0.04991

                                  6
 Wavenumbers [cm-1]            0.00
 Intensities [km/mol]          0.00
 Intensities [relative]        0.00
           CX1              0.00856
           CY1              0.00369
           CZ1              0.13309
           CX2              0.06436
           CY2             -0.04561
           CZ2              0.11252
           HX3              0.00857
           HY3              0.04642
           HZ3              0.17583
           HX4              0.02296
           HY4             -0.00090
           HZ4              0.13592
           HX5             -0.04616
           HY5             -0.00090
           HZ5              0.10036
           OX6              0.10396
           OY6             -0.04341
           OZ6              0.13509


 Frequencies dumped to record   5400.2
 Frequency information read from record  5400.2

 Zero point energy:  0.04611349 [H]    10120.74 [1/CM]      121.07 [KJ/MOL]

 Recomputing wavefunction at initial geometry


 **********************************************************************************************************************************
 DATASETS  * FILE   NREC   LENGTH (MB)   RECORD NAMES
              1      20       35.98       500      610      700      701      900      950      970     1000      129      960   
                                          VAR    BASINP    GEOM     GEOM    SYMINP    ZMAT    AOBASIS   BASIS     P2S    ABASIS    
                                         1100     1400     1410     1200     1210     1080     1600     1650     1300     1700   
                                           S        T        V       H0       H01     AOSYM     SMH    MOLCAS    ERIS     OPER   

              2       7        0.60       700     1000      520     2100     5300     5450     5400   
                                         GEOM     BASIS   MCVARS     RHF     HESS     NMOD     FREQ   

 PROGRAMS   *        TOTAL      FREQ      OPTG    HF-SCF       INT
 CPU TIMES  *        37.33     32.17      4.51      0.17      0.37
 REAL TIME  *        40.05 SEC
 DISK USED  *        81.16 MB
 **********************************************************************************************************************************

 Dump information in style MOLDEN to ch3co.molden                                                                    

 Molecular orbitals read from record     2100.2  Type=RHF/CANONICAL  
 Occupation numbers read from record     2100.2  Type=RHF/RHF  
 Orbital energies read from record       2100.2  Type=RHF/CANONICAL  
 Redundancy group numbers read from rec  2100.2  Type=RHF/RHF  

 DUMP ORBITAL  1.1 AS ORBITAL    1  occ=    2.0000  eig=  -20.5817  GROUP=   2
 DUMP ORBITAL  2.1 AS ORBITAL    2  occ=    2.0000  eig=  -11.3255  GROUP=   2
 DUMP ORBITAL  3.1 AS ORBITAL    3  occ=    2.0000  eig=  -11.2566  GROUP=   2
 DUMP ORBITAL  4.1 AS ORBITAL    4  occ=    2.0000  eig=   -1.4410  GROUP=   2
 DUMP ORBITAL  5.1 AS ORBITAL    5  occ=    2.0000  eig=   -1.0233  GROUP=   2
 DUMP ORBITAL  6.1 AS ORBITAL    6  occ=    2.0000  eig=   -0.7469  GROUP=   2
 DUMP ORBITAL  7.1 AS ORBITAL    7  occ=    2.0000  eig=   -0.6412  GROUP=   2
 DUMP ORBITAL  8.1 AS ORBITAL    8  occ=    2.0000  eig=   -0.6293  GROUP=   2
 DUMP ORBITAL  1.2 AS ORBITAL    9  occ=    2.0000  eig=   -0.6215  GROUP=   2
 DUMP ORBITAL  9.1 AS ORBITAL   10  occ=    2.0000  eig=   -0.5430  GROUP=   2
 DUMP ORBITAL  2.2 AS ORBITAL   11  occ=    2.0000  eig=   -0.5396  GROUP=   2
 DUMP ORBITAL 10.1 AS ORBITAL   12  occ=    1.0000  eig=   -0.3613  GROUP=   1

 Total charge:      23.000000
 Frequency information read from record  5400.2

 **********************************************************************************************************************************

 HF/6-311G(D,P) energy=   -152.334817766643

    OPTG(HF-SCF)          HF-SCF
   -152.33481777   -152.33135581
 **********************************************************************************************************************************
 Molpro calculation terminated
