
 Working directory              : /tmp/lme/molpro.i3Vr5ivhrc/
 Global scratch directory       : /tmp/lme/molpro.i3Vr5ivhrc/
 Wavefunction directory         : /home/lme/wfu/
 Main file repository           : /tmp/lme/molpro.i3Vr5ivhrc/

 id        : liedlgroup

 Nodes     nprocs
 sv1-c724     6
 GA implementation: MPI file
 GA implementation (serial work in mppx): MPI file

 Using customized tuning parameters: mindgm=1; mindgv=20; mindgc=4; mindgr=1; noblas=0; minvec=7
 default implementation of scratch files=sf  


 Variables initialized (1042), CPU time= 0.00 sec
 ***,water dimer
 
  memory, 600, m
                                                                                 !gthresh,optgrad=1.d-7,twoint=1.d-14,prefac=1.d-16
  orient,mass
  geometry={
 O, 0.000000, 0.000000,  0.000000
 H, 0.758602, 0.000000,  0.504284
 H, 0.260455, 0.000000, -0.872893
 O, 3.000000, 0.500000,  0.000000
 H1, 3.758602, 0.500000,  0.504284
 H, 3.260455, 0.500000, -0.872893
  }
  mass, H1 = 2.014
  mass,iso
  basis=6-311g(d,p)
 
  {hf
  start,atden}
 
 
  optg
  {frequencies, symm=auto, print=0,analytical}
  put,molden, h2o_dimer.molden
 Commands initialized (847), CPU time= 0.01 sec, 718 directives.
 Default parameters read. Elapsed time= 0.12 sec

 Checking input...
 Passed
1


                                         ***  PROGRAM SYSTEM MOLPRO  ***
                                       Copyright, TTI GmbH Stuttgart, 2015
                                    Version 2024.1 linked Wed Jan 31 11:42:09 2024


 **********************************************************************************************************************************
 LABEL *   water dimer                                                                                                                                                   
  (6 PROC) 64 bit mpp version                                                            DATE: 16-Sep-24          TIME: 12:47:12  
 **********************************************************************************************************************************

 SHA1:             675817fde4514a4a933b69e420913a90cee4ef91
 **********************************************************************************************************************************

 Memory per process:       600 MW
 Total memory per node:   3600 MW

 GA preallocation disabled
 GA check disabled

 Variable memory set to 600.0 MW

 ZCENTRE=MASS


 Geometry recognized as XYZ


 SETTING MASS FOR H1   (Z=  1)   TO   2.014


 Using masses of most abundant isotopes

 **********************************************************************************************************************************
 SETTING BASIS          =    6-311G(D,P)


 Recomputing integrals since basis changed


 Using spherical harmonics

 Library entry O      S 6-311G               selected for orbital group  1
 Library entry O      P 6-311G               selected for orbital group  1
 Library entry O      D 6-311G*              selected for orbital group  1
 Library entry H      S 6-311G               selected for orbital group  2
 Library entry H      P 6-311G**             selected for orbital group  2


 PROGRAM * SEWARD (Integral evaluation for generally contracted gaussian basis sets)     Author: Roland Lindh, 1990

 Geometry written to block  1 of record 700

 Orientation using atomic masses  
 Molecule type: Asymmetric top
 Rotational constants:       5.5202867      5.6590883    217.8327035 GHz

 Point group  C1  



 ATOMIC COORDINATES

 NR  ATOM    CHARGE       X              Y              Z

   1  O       8.00    0.011457824    0.064457188   -3.093028891
   2  H       1.00   -0.171250879    1.003188052   -1.661736561
   3  H       1.00   -0.148461073   -1.587276174   -2.635429243
   4  O       8.00    0.035131815   -0.035141368    2.653436920
   5  H1      1.00   -0.147576887    0.903589496    4.084729250
   6  H       1.00   -0.124787081   -1.686874730    3.111036567

 Bond lengths in Bohr (Angstrom)

 1-2  1.721393575  1-3  1.721393211  4-5  1.721393575  4-6  1.721393211
     ( 0.910922251)     ( 0.910922058)     ( 0.910922251)     ( 0.910922058)

 Bond angles

  2-1-3  107.00002446   5-4-6  107.00002446

 NUCLEAR CHARGE:                   20
 NUMBER OF PRIMITIVE AOS:          96
 NUMBER OF SYMMETRY AOS:           94
 NUMBER OF CONTRACTIONS:           60   (   60A   )
 NUMBER OF INNER CORE ORBITALS:     0   (    0A   )
 NUMBER OF OUTER CORE ORBITALS:     2   (    2A   )
 NUMBER OF VALENCE ORBITALS:       12   (   12A   )


 NUCLEAR REPULSION ENERGY   36.71638738


 Eigenvalues of metric

         1 0.147E-01 0.154E-01 0.316E-01 0.343E-01 0.742E-01 0.853E-01 0.888E-01 0.935E-01


 Contracted 2-electron integrals neglected if value below      1.0D-11
 AO integral compression algorithm  1   Integral accuracy      1.0D-11

     6.554 MB (compressed) written to integral file ( 39.7%)

     Node minimum: 0.786 MB, node maximum: 1.311 MB


 NUMBER OF SORTED TWO-ELECTRON INTEGRALS:     279990.     BUFFER LENGTH:  32768
 NUMBER OF SEGMENTS:   1  SEGMENT LENGTH:     279990      RECORD LENGTH: 524288

 Memory used in sort:       0.84 MW

 SORT1 READ     2065183. AND WROTE      200043. INTEGRALS IN      1 RECORDS. CPU TIME:     0.03 SEC, REAL TIME:     0.03 SEC
 SORT2 READ     1176028. AND WROTE     1675365. INTEGRALS IN     18 RECORDS. CPU TIME:     0.01 SEC, REAL TIME:     0.02 SEC

 Node minimum:      278465.  Node maximum:      279990. integrals

 OPERATOR DM      FOR CENTER  0  COORDINATES:    0.000000    0.000000    0.000000


 **********************************************************************************************************************************
 DATASETS  * FILE   NREC   LENGTH (MB)   RECORD NAMES
              1      18       28.81       500      610      700      900      950      970     1000      129      960     1100   
                                          VAR    BASINP    GEOM    SYMINP    ZMAT    AOBASIS   BASIS     P2S    ABASIS      S 
                                         1400     1410     1200     1210     1080     1600     1650     1700   
                                           T        V       H0       H01     AOSYM     SMH    MOLCAS    OPER   

 PROGRAMS   *        TOTAL       INT
 CPU TIMES  *         0.62      0.41
 REAL TIME  *         1.03 SEC
 DISK USED  *        29.22 MB (local),      203.75 MB (total)
 GA USED    *         0.00 MB       (max)       0.00 MB       (current)
 **********************************************************************************************************************************


 Program * Restricted Hartree-Fock

 Orbital guess generated from atomic densities.

 Initial occupancy:  10

 NELEC=   20   SYM=1   MS2= 0   THRE=1.0D-08   THRD=1.0D-06   THRG=1.0D-06  HFMA2=F  DIIS_START=2   DIIS_MAX=10   DIIS_INCORE=F

 Level shifts:    0.00 (CLOSED)    0.00 (OPEN)    0.30 (GAP_MIN)

 ITER           ETOT              DE          GRAD        DDIFF     DIIS  NEXP   TIME(IT)  TIME(TOT)  DIAG
   1     -152.02452425    -152.02452425     0.00D+00     0.62D-01     0     0       0.00      0.02    start
   2     -152.07948999      -0.05496575     0.14D-01     0.97D-02     1     0       0.00      0.02    diag
   3     -152.09484053      -0.01535053     0.72D-02     0.31D-02     2     0       0.01      0.03    diag
   4     -152.09518536      -0.00034484     0.76D-03     0.67D-03     3     0       0.00      0.03    diag
   5     -152.09520964      -0.00002428     0.18D-03     0.24D-03     4     0       0.00      0.03    diag
   6     -152.09521049      -0.00000084     0.29D-04     0.45D-04     5     0       0.00      0.03    diag
   7     -152.09521051      -0.00000003     0.68D-05     0.57D-05     6     0       0.01      0.04    diag
   8     -152.09521052      -0.00000000     0.27D-05     0.23D-05     7     0       0.00      0.04    fixocc
   9     -152.09521052      -0.00000000     0.36D-06     0.45D-06     8     0       0.00      0.04    diag
  10     -152.09521052      -0.00000000     0.53D-07     0.59D-07     0     0       0.01      0.05    diag/orth

 Final occupancy:  10

 !RHF STATE 1.1 Energy               -152.095210519212
  RHF One-electron energy            -282.777287508780
  RHF Two-electron energy              93.965689611187
  RHF Kinetic energy                  152.493960255380
  RHF Nuclear energy                   36.716387378381
  RHF Virial quotient                  -0.997385144071

 !RHF STATE 1.1 Dipole moment          -0.26844797    -0.55066872     1.62142923
 Dipole moment /Debye                  -0.68232667    -1.39966028     4.12126202

 Orbital energies:

           1.1          2.1          3.1          4.1          5.1          6.1          7.1          8.1          9.1         10.1
    -20.559673   -20.507767    -1.388547    -1.337674    -0.761402    -0.712154    -0.605558    -0.546585    -0.526639    -0.476953

          11.1         12.1
      0.134739     0.192871


 HOMO     10.1    -0.476953 =     -12.9786eV
 LUMO     11.1     0.134739 =       3.6664eV
 LUMO-HOMO         0.611692 =      16.6450eV

 Orbitals saved in record  2100.2


 **********************************************************************************************************************************
 DATASETS  * FILE   NREC   LENGTH (MB)   RECORD NAMES
              1      18       28.81       500      610      700      900      950      970     1000      129      960     1100   
                                          VAR    BASINP    GEOM    SYMINP    ZMAT    AOBASIS   BASIS     P2S    ABASIS      S 
                                         1400     1410     1200     1210     1080     1600     1650     1700   
                                           T        V       H0       H01     AOSYM     SMH    MOLCAS    OPER   

              2       4        0.52       700     1000      520     2100   
                                         GEOM     BASIS   MCVARS     RHF  

 PROGRAMS   *        TOTAL    HF-SCF       INT
 CPU TIMES  *         0.68      0.06      0.41
 REAL TIME  *         1.09 SEC
 DISK USED  *        29.64 MB (local),      206.30 MB (total)
 GA USED    *         0.00 MB       (max)       0.00 MB       (current)
 **********************************************************************************************************************************


 PROGRAM * OPT (Geometry optimization)     Authors: F. Eckert and H.-J. Werner


 BFGS update of hessian

 *** Long output written to logfile /home/lme/Theoretische_Chemie/Nomodeco/deuterium_calculations/h2o_dimer/h2o_dimer_d/h2o_dimer.log ***


 Geometry optimization using default procedure for command HF-SCF

 Geometry written to block  1 of record 700

 PQS Optimization using delocalized internal coordinates

 Point group c1. Number of degrees of freedom:   12

 ITER.   ENERGY(OLD)    ENERGY(NEW)      DE          GRADMAX     GRADNORM    GRADRMS     STEPMAX     STEPLEN     STEPRMS   CPU-time
   1  -152.09521052  -152.09971843    -0.00450792  0.04450887  0.07840469  0.02263348  0.06493512  0.12504928  0.03609862      0.41
   2  -152.09971843  -152.09989871    -0.00018028  0.00255645  0.00593123  0.00171220  0.04944551  0.06641902  0.01917352      0.82
   3  -152.09989871  -152.10015318    -0.00025446  0.00269630  0.00372799  0.00107618  0.14874817  0.19276055  0.05564518      1.23
   4  -152.10015318  -152.10046628    -0.00031311  0.00311269  0.00472875  0.00136507  0.29055565  0.40218667  0.11610129      1.63
   5  -152.10046628  -152.10095696    -0.00049067  0.00514775  0.00821711  0.00237208  0.26883061  0.35817484  0.10339617      2.04
   6  -152.10095696  -152.10176344    -0.00080648  0.00456861  0.00732461  0.00211443  0.34814462  0.50000000  0.14433757      2.45
   7  -152.10176344  -152.10229502    -0.00053158  0.00222309  0.00409452  0.00118199  0.32727443  0.50000000  0.14433757      2.86
   8  -152.10229502  -152.10241525    -0.00012023  0.00109914  0.00184024  0.00053123  0.31226304  0.43062933  0.12431198      3.27
   9  -152.10241525  -152.10259107    -0.00017582  0.00127383  0.00191983  0.00055421  0.23292371  0.46632862  0.13461748      3.69
  10  -152.10259107  -152.10268032    -0.00008925  0.00137554  0.00198114  0.00057191  0.24988869  0.43015634  0.12417544      4.09
  11  -152.10268032  -152.10283344    -0.00015313  0.00129151  0.00199838  0.00057688  0.28125496  0.43391533  0.12526056      4.50
  12  -152.10283344  -152.10287960    -0.00004616  0.00091091  0.00188514  0.00054419  0.15165043  0.24088924  0.06953873      4.91
  13  -152.10287960  -152.10289558    -0.00001598  0.00082915  0.00124404  0.00035912  0.04753090  0.07304244  0.02108554      5.31
  14  -152.10289558  -152.10289872    -0.00000314  0.00039729  0.00064963  0.00018753  0.03966094  0.05064674  0.01462045      5.71
  15  -152.10289872  -152.10289952    -0.00000080  0.00036602  0.00053973  0.00015581  0.06581782  0.08169314  0.02358278      6.11
  16  -152.10289952  -152.10289957    -0.00000004  0.00036201  0.00051903  0.00014983  0.10074904  0.12487179  0.03604738      6.50
  17  -152.10289957  -152.10290207    -0.00000250  0.00030990  0.00049895  0.00014404  0.02132670  0.02508089  0.00724023      6.90
  18  -152.10290207  -152.10290583    -0.00000376  0.00027726  0.00042654  0.00012313  0.05241315  0.06278231  0.01812369      7.31
  19  -152.10290583  -152.10290712    -0.00000129  0.00021647  0.00036127  0.00010429  0.00692706  0.01121827  0.00323844      7.71
  20  -152.10290712  -152.10291031    -0.00000319  0.00018283  0.00028108  0.00008114  0.01102793  0.02113325  0.00610064      8.11
  21  -152.10291031  -152.10291197    -0.00000166  0.00010160  0.00018735  0.00005408  0.03086518  0.03429673  0.00990061      8.51
  22  -152.10291197  -152.10291268    -0.00000070  0.00012371  0.00020133  0.00005812  0.02990384  0.03299195  0.00952395      8.91

 END OF GEOMETRY OPTIMIZATION.

 Geometry written to block  1 of record 700

 Recomputing wavefunction for reoriented structure

 Current geometry (xyz format, in Angstrom)

    6
 HF-SCF000/6-311G(D,P)  ENERGY=-152.10291268
 O          0.0583486693        0.0290943764       -1.5788392058
 H          0.0203813857       -0.0084639735       -0.6352736621
 H         -0.7740330678       -0.2950282594       -1.8727832470
 O         -0.0534962258       -0.0681262745        1.3965996881
 H          0.0390630017        0.7740123250        1.8078293425
 H          0.5985778523       -0.6238008232        1.7876306330

 **********************************************************************************************************************************


 **********************************************************************************************************************************
 DATASETS  * FILE   NREC   LENGTH (MB)   RECORD NAMES
              1      18       28.81       500      610      700      900      950      970     1000      129      960     1100   
                                          VAR    BASINP    GEOM    SYMINP    ZMAT    AOBASIS   BASIS     P2S    ABASIS      S 
                                         1400     1410     1200     1210     1080     1600     1650     1700   
                                           T        V       H0       H01     AOSYM     SMH    MOLCAS    OPER   

              2       4        0.52       700     1000      520     2100   
                                         GEOM     BASIS   MCVARS     RHF  

 PROGRAMS   *        TOTAL      OPTG    HF-SCF       INT
 CPU TIMES  *         9.91      9.23      0.06      0.41
 REAL TIME  *        11.37 SEC
 DISK USED  *        29.65 MB (local),      206.65 MB (total)
 SF USED    *         0.07 MB
 GA USED    *         0.00 MB       (max)       0.00 MB       (current)
 **********************************************************************************************************************************


 PROGRAM * HESSIAN

 PROGRAM * MCKINLEY (Hessian of the energy)     Author: A. Bernhardsson, R. Lindh

 Orbitals from record         2100.2

 Number of closed-shell orbitals: 10 ( 10 )
 Number of occupied orbitals:     10 ( 10 )

 Number of electrons= 20     Singlet     Space symmetry=1      Wavefunction type: CLOSED          


 McKinley needed      0.61 seconds of CPU time

 Entering CPHF calculation

 CPHF needed 145 iterations for 18 perturbations.  Total CPU time:    0.58 sec


 HF-SCF hessian saved to record  5300.2

 PROGRAM * FREQUENCIES (Calculation of harmonic vibrational spectra for HF-SCF)


 Permanent Dipole Moment [debye]
     1-   3    0.000000    0.000000    0.000000

 Dipole Moment Norm    0.0000000 [debye]

 Dipole Moment Derivatives [debye/ang]
              1             2             3             4             5             6             7             8
    1    0.00000000    0.00000000    0.00000000    0.00000000    0.00000000    0.00000000    0.00000000    0.00000000
    2    0.00000000    0.00000000    0.00000000    0.00000000    0.00000000    0.00000000    0.00000000    0.00000000
    3    0.00000000    0.00000000    0.00000000    0.00000000    0.00000000    0.00000000    0.00000000    0.00000000
              9            10            11            12            13            14            15            16
    1    0.00000000    0.00000000    0.00000000    0.00000000    0.00000000    0.00000000    0.00000000    0.00000000
    2    0.00000000    0.00000000    0.00000000    0.00000000    0.00000000    0.00000000    0.00000000    0.00000000
    3    0.00000000    0.00000000    0.00000000    0.00000000    0.00000000    0.00000000    0.00000000    0.00000000
             17            18
    1    0.00000000    0.00000000
    2    0.00000000    0.00000000
    3    0.00000000    0.00000000

 Projecting out rotations and translations

 Force Constants (Second Derivatives of the Energy) in [a.u.]
                             OX1         OY1         OZ1         HX2         HY2     
           OX1           0.5414136
           OY1           0.2107529   0.0875936
           OZ1           0.1194902   0.0309335   0.7029060
           HX2          -0.0530435  -0.0199389   0.0603712   0.0567333
           HY2          -0.0185206  -0.0148517   0.0379692   0.0182826   0.0188538
           HZ2           0.0022937   0.0148987  -0.5924012  -0.0070545  -0.0171378
           HX3          -0.4911110  -0.1907016  -0.1797989   0.0001889  -0.0003907
           HY3          -0.1921054  -0.0757403  -0.0690660   0.0010298   0.0011642
           HZ3          -0.1214459  -0.0458504  -0.1038626  -0.0530967  -0.0207355
           OX4           0.0038477  -0.0002774  -0.0001027  -0.0052896   0.0007639
           OY4          -0.0002930   0.0044971   0.0001795   0.0007397  -0.0069125
           OZ4          -0.0020320  -0.0006496  -0.0065871   0.0032253   0.0012474
           H1X5         -0.0005958   0.0001704  -0.0003652   0.0006769   0.0000194
           H1Y5          0.0000759  -0.0007523   0.0009584  -0.0000758   0.0009839
           H1Z5          0.0002239   0.0018897   0.0000261  -0.0004607  -0.0038218
           HX6          -0.0005110  -0.0000054   0.0004055   0.0007339  -0.0001546
           HY6           0.0000901  -0.0007464  -0.0009746  -0.0000373   0.0007623
           HZ6           0.0014702  -0.0012220  -0.0000812  -0.0029846   0.0024784
                             HZ2         HX3         HY3         HZ3         OX4     
           HZ2           0.6099350
           HX3           0.0056724   0.4911694
           HY3           0.0026363   0.1910548   0.0749295
           HZ3          -0.0148133   0.1736455   0.0662355   0.1192269
           OX4          -0.0015178  -0.0003432   0.0001465   0.0010283   0.3434196
           OY4          -0.0006723   0.0001637  -0.0007221   0.0003945  -0.1911389
           OZ4          -0.0019293   0.0006106   0.0002465  -0.0007891   0.2421511
           H1X5          0.0010687   0.0001249  -0.0002154  -0.0000378  -0.0380669
           H1Y5         -0.0017726  -0.0000739   0.0001125  -0.0001047  -0.0225545
           H1Z5         -0.0004670   0.0000019  -0.0001963   0.0001109  -0.0436837
           HX6          -0.0004624  -0.0000291   0.0000898  -0.0000934  -0.3035675
           HY6           0.0020477  -0.0000524   0.0002562   0.0000606   0.2130605
           HZ6          -0.0003241  -0.0001316   0.0001441   0.0001273  -0.1978752
                             OY4         OZ4         H1X5        H1Y5        H1Z5    
           OY4           0.7342467
           OZ4           0.1045552   0.2824803
           H1X5         -0.0675199  -0.0618620   0.0343521
           H1Y5         -0.4931971  -0.2105947   0.0308961   0.5194706
           H1Z5         -0.2509310  -0.1417183   0.0437560   0.2293629   0.1326033
           HX6           0.2580484  -0.1820931   0.0035088  -0.0082678   0.0001626
           HY6          -0.2379120   0.1051952   0.0366494  -0.0266175   0.0236966
           HZ6           0.1464742  -0.1314565   0.0174404  -0.0178493   0.0094451
                             HX6         HY6         HZ6     
           HX6           0.2998649
           HY6          -0.2497104   0.2642575
           HZ6           0.1820808  -0.1300255   0.1222894


 Atomic Masses
     1-   6   15.994910    1.007825    1.007825   15.994910    2.014000    1.007825

 Mass weighted Second Derivative Matrix
                             OX1         OY1         OZ1         HX2         HY2     
           OX1           0.0338491
           OY1           0.0131762   0.0054763
           OZ1           0.0074705   0.0019340   0.0439456
           HX2          -0.0132114  -0.0049661   0.0150365   0.0562928
           HY2          -0.0046129  -0.0036991   0.0094569   0.0181407   0.0187074
           HZ2           0.0005713   0.0037108  -0.1475477  -0.0069997  -0.0170047
           HX3          -0.1223196  -0.0474975  -0.0447820   0.0001875  -0.0003876
           HY3          -0.0478472  -0.0188644  -0.0172021   0.0010218   0.0011551
           HZ3          -0.0302482  -0.0114198  -0.0258688  -0.0526844  -0.0205745
           OX4           0.0002406  -0.0000173  -0.0000064  -0.0013175   0.0001903
           OY4          -0.0000183   0.0002812   0.0000112   0.0001842  -0.0017217
           OZ4          -0.0001270  -0.0000406  -0.0004118   0.0008033   0.0003107
           H1X5         -0.0001050   0.0000300  -0.0000643   0.0004751   0.0000136
           H1Y5          0.0000134  -0.0001325   0.0001689  -0.0000532   0.0006906
           H1Z5          0.0000394   0.0003329   0.0000046  -0.0003234  -0.0026825
           HX6          -0.0001273  -0.0000014   0.0001010   0.0007282  -0.0001534
           HY6           0.0000224  -0.0001859  -0.0002427  -0.0000370   0.0007564
           HZ6           0.0003662  -0.0003044  -0.0000202  -0.0029614   0.0024592
                             HZ2         HX3         HY3         HZ3         OX4     
           HZ2           0.6051993
           HX3           0.0056284   0.4873559
           HY3           0.0026158   0.1895714   0.0743478
           HZ3          -0.0146983   0.1722973   0.0657212   0.1183012
           OX4          -0.0003780  -0.0000855   0.0000365   0.0002561   0.0214706
           OY4          -0.0001675   0.0000408  -0.0001799   0.0000983  -0.0119500
           OZ4          -0.0004805   0.0001521   0.0000614  -0.0001965   0.0151393
           H1X5          0.0007501   0.0000877  -0.0001512  -0.0000265  -0.0067070
           H1Y5         -0.0012442  -0.0000519   0.0000790  -0.0000735  -0.0039739
           H1Z5         -0.0003278   0.0000013  -0.0001378   0.0000778  -0.0076966
           HX6          -0.0004588  -0.0000288   0.0000891  -0.0000927  -0.0756087
           HY6           0.0020318  -0.0000520   0.0002542   0.0000601   0.0530664
           HZ6          -0.0003216  -0.0001306   0.0001430   0.0001263  -0.0492842
                             OY4         OZ4         H1X5        H1Y5        H1Z5    
           OY4           0.0459050
           OZ4           0.0065368   0.0176606
           H1X5         -0.0118963  -0.0108994   0.0170567
           H1Y5         -0.0868960  -0.0371045   0.0153407   0.2579298
           H1Z5         -0.0442113  -0.0249692   0.0217259   0.1138842   0.0658408
           HX6           0.0642714  -0.0453534   0.0024629  -0.0058032   0.0001141
           HY6          -0.0592561   0.0262007   0.0257244  -0.0186830   0.0166327
           HZ6           0.0364819  -0.0327415   0.0122415  -0.0125285   0.0066295
                             HX6         HY6         HZ6     
           HX6           0.2975367
           HY6          -0.2477716   0.2622057
           HZ6           0.1806671  -0.1290159   0.1213399


 Mass Weighted 2nd Derivative Matrix Eigenvalues
     1-  10    0.000000    0.000000    0.000000    0.000000    0.000000    0.000000    0.000362    0.000551    0.000758    0.001094
    11-  18    0.004049    0.013298    0.089098    0.119794    0.349917    0.636141    0.663196    0.672163

 Mass Weighted 2nd Derivative Matrix Eigenvectors
              1             2             3             4             5             6             7             8
    1   -0.00506823   -0.02135531    0.01212238   -0.01027354    0.04300197    0.94784448    0.01081315    0.00253163
    2    0.91838255   -0.14465855    0.16082928   -0.13016179    0.06496251   -0.01484007   -0.10436630   -0.12411285
    3    0.08466354    0.54476834    0.12924731   -0.07940010   -0.32244817    0.04294321   -0.13116892   -0.14618544
    4    0.00309559   -0.01848396    0.03670552    0.05705765   -0.01330479    0.16385551   -0.02557293    0.29922518
    5    0.17048324    0.00863109   -0.00204497    0.01376946    0.05221423   -0.00197093    0.33954141   -0.04222396
    6    0.01903757    0.13800652    0.03210934   -0.01568243   -0.08048010    0.00786888   -0.01951204   -0.02522618
    7    0.05287755   -0.06181729   -0.11033563    0.02800402   -0.12373691    0.25366625    0.03568035   -0.30301994
    8    0.10968950    0.10188889    0.31223911   -0.17072431    0.36218445    0.01416069   -0.20549036    0.48870512
    9    0.00115796    0.14422891    0.05372454    0.04569079   -0.08136698   -0.05352031    0.07111272    0.24908142
   10    0.03583159   -0.17098096    0.46090587    0.72653892   -0.22399406    0.01919841    0.00597327    0.20656306
   11    0.16924722    0.41427546   -0.38163926    0.45786582    0.50277339    0.00651116    0.21997838    0.02210081
   12    0.06172340    0.55740683    0.12839197   -0.03249034   -0.31817918    0.00873362   -0.06055180   -0.07591349
   13   -0.18520105    0.15004396    0.55612579    0.11688960    0.41897624   -0.01232334   -0.03664353   -0.47826808
   14    0.04855738    0.14688565   -0.20881110    0.21366302    0.13529394    0.00002363   -0.28577158   -0.05055357
   15    0.08999759    0.15060696    0.10748721   -0.08464396   -0.13680852    0.01208924    0.72985913    0.21457704
   16    0.10008276   -0.14573316   -0.03583737    0.28615404   -0.29465610   -0.03766897   -0.02518075   -0.15310189
   17    0.12798631    0.00221672   -0.31798330    0.23193859   -0.14136892   -0.01221940   -0.19065072    0.03137946
   18   -0.01490003    0.16674395   -0.03081698   -0.01494580   -0.06250272    0.05335746   -0.31957638    0.35761062
              9            10            11            12            13            14            15            16
    1    0.09818519    0.01105687    0.03626059    0.04845130   -0.00370353   -0.20552359    0.00014004    0.09035674
    2   -0.17975028    0.02148210    0.00274460   -0.12441414   -0.00368699   -0.08515887   -0.00006228    0.04030312
    3    0.10567965   -0.64750256   -0.12220976   -0.00384410    0.00724010    0.14333116   -0.00114900   -0.18244288
    4   -0.25244133   -0.03724236    0.50147127   -0.34295378    0.00372373    0.66540468   -0.00106711   -0.00477936
    5   -0.00271613   -0.04257512    0.26312017    0.84223276    0.01502025    0.26317904   -0.00049966   -0.02308228
    6    0.01715799   -0.16487778   -0.00141205    0.01975398   -0.00097034    0.04220307    0.00371009    0.88622944
    7   -0.12939487    0.01683711   -0.17865378   -0.02275483    0.00344689    0.18006963   -0.00006579   -0.35398000
    8    0.55864022    0.01713579   -0.06856864    0.06594272    0.00337607    0.08639149    0.00013755   -0.13709320
    9   -0.20212281   -0.21606648    0.57100152   -0.00893981   -0.01298535   -0.61285848   -0.00004945   -0.15598551
   10   -0.08017192   -0.04377648   -0.23506295    0.08223347   -0.19552383   -0.00702645   -0.03537544   -0.00896231
   11   -0.01401786   -0.04514968   -0.09936453   -0.13489975   -0.07320968   -0.00284667   -0.28742016    0.00854537
   12    0.04659138    0.67914935    0.12325332    0.02022559   -0.22152214    0.00830859   -0.14472448   -0.00515042
   13   -0.11014502    0.05986062    0.16263168   -0.05450365    0.40390121   -0.00181530    0.07737328    0.00028064
   14   -0.00548360    0.04980786    0.06201008    0.07440993   -0.22033290    0.00629653    0.85038485   -0.00484172
   15    0.03642990    0.08972774   -0.20678797   -0.22529583    0.29598712   -0.01156447    0.40215810   -0.00219385
   16    0.46577961    0.06613282    0.23927105   -0.07786608    0.21554411    0.00385027    0.03212638    0.03410292
   17    0.22376269    0.04931627    0.10270404    0.01969267    0.59941541   -0.00787440   -0.05649670   -0.02758308
   18   -0.47315224    0.12802733   -0.28142419    0.24241113    0.44919642   -0.01710022    0.00896661    0.02019294
             17            18
    1   -0.01906652   -0.18621925
    2   -0.00742987   -0.06999528
    3   -0.00440253   -0.17139949
    4   -0.00283618   -0.02858210
    5   -0.00035454   -0.02086881
    6   -0.01383153    0.39559797
    7    0.07808242    0.77095766
    8    0.03025166    0.29983742
    9    0.03032158    0.28803317
   10   -0.16069492    0.01217802
   11    0.15569763   -0.01183448
   12   -0.08960004    0.00693368
   13   -0.01444253    0.00159310
   14   -0.02510297    0.00032879
   15   -0.02284943    0.00129081
   16    0.66130517   -0.05128087
   17   -0.58508090    0.04656061
   18    0.39029884   -0.03025576

   Low Vibration      Wavenumber
        Nr             [1/cm] 
        1                0.00
        2                0.00
        3                0.00
        4                0.00
        5                0.00
        6                0.00

     Vibration        Wavenumber
        Nr             [1/cm] 
        1               97.80
        2              120.63
        3              141.55
        4              170.01
        5              327.11
        6              592.79
        7             1534.40
        8             1779.19
        9             3040.79
       10             4099.97
       11             4186.25
       12             4214.46

 FREQUENCIES * CALCULATION OF NORMAL MODES FOR HF-SCF


 Atomic Coordinates

  Nr  Atom  Charge       X              Y              Z

   1   O     8.00    0.110263005    0.054980403   -2.983573694
   2   H     1.00    0.038515237   -0.015994592   -1.200493236
   3   H     1.00   -1.462710510   -0.557522609   -3.539047428
   4   O     8.00   -0.101093215   -0.128740001    2.639190916
   5   H1    1.00    0.073818375    1.462671311    3.416302337
   6   H     1.00    1.131148205   -1.178812712    3.378132308

 Gradient norm at reference geometry: 0.37928D-03

 Normal Modes

                              1 A         2 A         3 A         4 A         5 A  
 Wavenumbers [cm-1]           97.80      120.63      141.55      170.01      327.11
 Intensities [km/mol]          0.00        0.00        0.00        0.00        0.00
 Intensities [relative]        0.00        0.00        0.00        0.00        0.00
           OX1              0.00270     0.00063     0.02455     0.00276     0.00907
           OY1             -0.02610    -0.03103    -0.04494     0.00537     0.00069
           OZ1             -0.03280    -0.03655     0.02642    -0.16190    -0.03056
           HX2             -0.02547     0.29806    -0.25146    -0.03710     0.49952
           HY2              0.33822    -0.04206    -0.00271    -0.04241     0.26210
           HZ2             -0.01944    -0.02513     0.01709    -0.16424    -0.00141
           HX3              0.03554    -0.30184    -0.12889     0.01677    -0.17796
           HY3             -0.20469     0.48680     0.55647     0.01707    -0.06830
           HZ3              0.07084     0.24811    -0.20134    -0.21523     0.56878
           OX4              0.00149     0.05165    -0.02005    -0.01095    -0.05878
           OY4              0.05500     0.00553    -0.00351    -0.01129    -0.02485
           OZ4             -0.01514    -0.01898     0.01165     0.16981     0.03082
           H1X5            -0.02582    -0.33701    -0.07761     0.04218     0.11460
           H1Y5            -0.20137    -0.03562    -0.00386     0.03510     0.04370
           H1Z5             0.51429     0.15120     0.02567     0.06323    -0.14571
           HX6             -0.02508    -0.15251     0.46397     0.06588     0.23834
           HY6             -0.18991     0.03126     0.22289     0.04912     0.10230
           HZ6             -0.31833     0.35622    -0.47131     0.12753    -0.28033

                              6 A         7 A         8 A         9 A        10 A  
 Wavenumbers [cm-1]          592.79     1534.40     1779.19     3040.79     4099.97
 Intensities [km/mol]          0.00        0.00        0.00        0.00        0.00
 Intensities [relative]        0.00        0.00        0.00        0.00        0.00
           OX1              0.01211    -0.00093    -0.05139     0.00004     0.02259
           OY1             -0.03111    -0.00092    -0.02129    -0.00002     0.01008
           OZ1             -0.00096     0.00181     0.03584    -0.00029    -0.04562
           HX2             -0.34162     0.00371     0.66282    -0.00106    -0.00476
           HY2              0.83896     0.01496     0.26216    -0.00050    -0.02299
           HZ2              0.01968    -0.00097     0.04204     0.00370     0.88278
           HX3             -0.02267     0.00343     0.17937    -0.00007    -0.35260
           HY3              0.06569     0.00336     0.08606     0.00014    -0.13656
           HZ3             -0.00891    -0.01293    -0.61047    -0.00005    -0.15538
           OX4              0.02056    -0.04889    -0.00176    -0.00885    -0.00224
           OY4             -0.03373    -0.01831    -0.00071    -0.07187     0.00214
           OZ4              0.00506    -0.05539     0.00208    -0.03619    -0.00129
           H1X5            -0.03841     0.28461    -0.00128     0.05452     0.00020
           H1Y5             0.05243    -0.15526     0.00444     0.59922    -0.00341
           H1Z5            -0.15875     0.20857    -0.00815     0.28338    -0.00155
           HX6             -0.07756     0.21471     0.00384     0.03200     0.03397
           HY6              0.01962     0.59708    -0.00784    -0.05628    -0.02748
           HZ6              0.24147     0.44745    -0.01703     0.00893     0.02011

                             11 A        12 A  
 Wavenumbers [cm-1]         4186.25     4214.46
 Intensities [km/mol]          0.00        0.00
 Intensities [relative]        0.00        0.00
           OX1             -0.00477    -0.04656
           OY1             -0.00186    -0.01750
           OZ1             -0.00110    -0.04286
           HX2             -0.00283    -0.02847
           HY2             -0.00035    -0.02079
           HZ2             -0.01378     0.39406
           HX3              0.07778     0.76796
           HY3              0.03013     0.29867
           HZ3              0.03020     0.28691
           OX4             -0.04018     0.00304
           OY4              0.03893    -0.00296
           OZ4             -0.02240     0.00173
           H1X5            -0.01018     0.00112
           H1Y5            -0.01769     0.00023
           H1Z5            -0.01610     0.00091
           HX6              0.65873    -0.05108
           HY6             -0.58281     0.04638
           HZ6              0.38878    -0.03014


 Normal Modes of low/zero frequencies

                                  1           2           3           4           5
 Wavenumbers [cm-1]            0.00        0.00        0.00        0.00        0.00
 Intensities [km/mol]          0.00        0.00        0.00        0.00        0.00
 Intensities [relative]        0.00        0.00        0.00        0.00        0.00
           OX1             -0.00127    -0.00534     0.00303    -0.00257     0.01075
           OY1              0.22963    -0.03617     0.04021    -0.03255     0.01624
           OZ1              0.02117     0.13621     0.03232    -0.01985    -0.08062
           HX2              0.00308    -0.01841     0.03656     0.05684    -0.01325
           HY2              0.16982     0.00860    -0.00204     0.01372     0.05201
           HZ2              0.01896     0.13747     0.03198    -0.01562    -0.08017
           HX3              0.05267    -0.06158    -0.10991     0.02790    -0.12326
           HY3              0.10926     0.10149     0.31102    -0.17006     0.36078
           HZ3              0.00115     0.14367     0.05352     0.04551    -0.08105
           OX4              0.00896    -0.04275     0.11524     0.18166    -0.05601
           OY4              0.04232     0.10359    -0.09542     0.11448     0.12571
           OZ4              0.01543     0.13937     0.03210    -0.00812    -0.07956
           H1X5            -0.13050     0.10573     0.39187     0.08237     0.29523
           H1Y5             0.03422     0.10350    -0.14714     0.15056     0.09533
           H1Z5             0.06342     0.10612     0.07574    -0.05964    -0.09640
           HX6              0.09969    -0.14517    -0.03570     0.28504    -0.29351
           HY6              0.12749     0.00221    -0.31675     0.23104    -0.14082
           HZ6             -0.01484     0.16610    -0.03070    -0.01489    -0.06226

                                  6
 Wavenumbers [cm-1]            0.00
 Intensities [km/mol]          0.00
 Intensities [relative]        0.00
           OX1              0.23700
           OY1             -0.00371
           OZ1              0.01074
           HX2              0.16322
           HY2             -0.00196
           HZ2              0.00784
           HX3              0.25268
           HY3              0.01411
           HZ3             -0.05331
           OX4              0.00480
           OY4              0.00163
           OZ4              0.00218
           H1X5            -0.00868
           H1Y5             0.00002
           H1Z5             0.00852
           HX6             -0.03752
           HY6             -0.01217
           HZ6              0.05315


 Frequencies dumped to record   5400.2
 Frequency information read from record  5400.2

 Zero point energy:  0.04625809 [H]    10152.48 [1/CM]      121.45 [KJ/MOL]


 **********************************************************************************************************************************
 DATASETS  * FILE   NREC   LENGTH (MB)   RECORD NAMES
              1      18       28.81       500      610      700      900      950      970     1000      129      960     1100   
                                          VAR    BASINP    GEOM    SYMINP    ZMAT    AOBASIS   BASIS     P2S    ABASIS      S 
                                         1400     1410     1200     1210     1080     1600     1650     1700   
                                           T        V       H0       H01     AOSYM     SMH    MOLCAS    OPER   

              2       7        0.57       700     1000      520     2100     5300     5450     5400   
                                         GEOM     BASIS   MCVARS     RHF     HESS     NMOD     FREQ   

              4       5        1.06      4100     4000     4200     4300     4400   

 PROGRAMS   *        TOTAL      FREQ      OPTG    HF-SCF       INT
 CPU TIMES  *        11.11      1.20      9.23      0.06      0.41
 REAL TIME  *        12.63 SEC
 DISK USED  *        29.65 MB (local),      206.65 MB (total)
 SF USED    *         1.06 MB
 GA USED    *         0.00 MB       (max)       0.00 MB       (current)
 **********************************************************************************************************************************

 Dump information in style MOLDEN to h2o_dimer.molden                                                                

 Molecular orbitals read from record     2100.2  Type=RHF/CANONICAL  
 Occupation numbers read from record     2100.2  Type=RHF/RHF  
 Orbital energies read from record       2100.2  Type=RHF/CANONICAL  
 Redundancy group numbers read from rec  2100.2  Type=RHF/RHF  

 DUMP ORBITAL  1.1 AS ORBITAL    1  occ=    2.0000  eig=  -20.5725  GROUP=   2
 DUMP ORBITAL  2.1 AS ORBITAL    2  occ=    2.0000  eig=  -20.5082  GROUP=   2
 DUMP ORBITAL  3.1 AS ORBITAL    3  occ=    2.0000  eig=   -1.3786  GROUP=   2
 DUMP ORBITAL  4.1 AS ORBITAL    4  occ=    2.0000  eig=   -1.3175  GROUP=   2
 DUMP ORBITAL  5.1 AS ORBITAL    5  occ=    2.0000  eig=   -0.7471  GROUP=   2
 DUMP ORBITAL  6.1 AS ORBITAL    6  occ=    2.0000  eig=   -0.6906  GROUP=   2
 DUMP ORBITAL  7.1 AS ORBITAL    7  occ=    2.0000  eig=   -0.6048  GROUP=   2
 DUMP ORBITAL  8.1 AS ORBITAL    8  occ=    2.0000  eig=   -0.5466  GROUP=   2
 DUMP ORBITAL  9.1 AS ORBITAL    9  occ=    2.0000  eig=   -0.5247  GROUP=   2
 DUMP ORBITAL 10.1 AS ORBITAL   10  occ=    2.0000  eig=   -0.4706  GROUP=   2

 Total charge:      20.000000
 Frequency information read from record  5400.2

 **********************************************************************************************************************************

 HF/6-311G(D,P)//HF/6-311G(D,P) energy=   -152.102912677753

    OPTG(HF-SCF)          HF-SCF
   -152.10291268   -152.09521052
 **********************************************************************************************************************************
 Molpro calculation terminated
