[Molden Format]
[Molpro variables]
_NUMVAR=  1076.000000000000    
_AVOGAD= 0.6022140760000000E+24
_BOLTZ= 0.1380649000000000E-22
_CLIGHTSI=  299792458.0000000    
_JOULE= 0.4359744722207100E-17
_JPCAL=  4.184000000000000    
_PLANCK= 0.6626070150000000E-33
_BOHR= 0.5291772109030000E-10
_ECHARG= 0.1602176634000000E-18
_ENULL= 0.8854187812800001E-11
_MU= 0.1660539066600000E-26
_EMASS= 0.9109383701500001E-30
_AMU2AU=  1822.888486217313    
_CLIGHT=  29979245800.00000    
_EV= 0.3674932217565494E-01
_KJOULE= 0.3808798847133432E-03
_KJOULE/MOL= 0.3808798847133432E-03
_CM= 0.4556335252912009E-05
_CM-1= 0.4556335252912009E-05
_DEB2SI= 0.3335640951981520E-29
_KCAL= 0.1593601437640628E-02
_KCAL/MOL= 0.1593601437640628E-02
_KELVIN= 0.3166811563455608E-05
_HERTZ= 0.1519829846057038E-15
_HZ= 0.1519829846057038E-15
_TOA= 0.5291772109030000    
_TOANG= 0.5291772109030000    
_TORAD= 0.1745329251994330E-01
_TOCM=  219474.6313631965    
_TODEBYE=  2.541746473194078    
_TOE= 0.4803204712570263E-09
_TOEV=  27.21138624598803    
_TOHERTZ=  6579683920501656.    
_TOHZ=  6579683920501656.    
_TOK=  315775.0248040668    
_TOKCAL=  627.5094740630558    
_TOKELVIN=  315775.0248040668    
_TOKJ=  2625.499639479825    
_TOKJOULE=  2625.499639479825    
_TOKG= 0.1660539066600000E-26
_ANG=  1.889726124625770    
_ANGSTROM=  1.889726124625770    
_RPAREF=  0.000000000000000    
_RPADISS=  0.000000000000000    
_IGNORE_UNDEF=  2.000000000000000    
_STRICTCHECK=  0.000000000000000    
!SEWARD=  0.000000000000000    
!MULTI=  0.000000000000000    
!DFMULTI=  0.000000000000000    
!NUMHESS=  0.000000000000000    
_SEW_ONEEL=  0.000000000000000    
_CPPDONE=FALSE
_DKROLL_DONE=  0.000000000000000    
_FNUC_DONE=  0.000000000000000    
_FOCKDONE=TRUE
_GRADONE=FALSE
_HESSDONE=TRUE
_INTDONE=TRUE
_SCFDONE=TRUE
_MODUL_BLOCK=FALSE
_MODUL_SLATER=TRUE
_MODUL_MRCC=FALSE
_MODUL_NBO6=FALSE
_MODUL_NECI=FALSE
_MODUL_AIMS=TRUE
_MODUL_HDF5=FALSE
_MODUL_GECCO=FALSE
_ISWINDOWS=FALSE
_MRCC_EXEC=
_FITC_AO_SAVED=FALSE
_FITC_MO_SAVED=FALSE
_LSTYP=SEWARD
_INTYP=INTS
_GEOMTYP=XYZ
_GRADTYP=ALASKA
_DIRECT=FALSE
_DKHO= -1.000000000000000    
_FNUC=  0.000000000000000    
_SYNCM=  0.000000000000000    
_BASIS=6-311G(D,P)
_ZCENTRE=MASS
_ZORIENT=  1.000000000000000    
_NELEC=  20.00000000000000    
!SPIN=  0.000000000000000    
_OPTCONV= 0.3299194637351718E-01
_QSDSTEP=  0.000000000000000    
_QSDIRC=  0.000000000000000    
_PROGRAM=FREQ
_CPUSTEP=  1.199999999999999    
_SYSSTEP= 0.5000000000000004E-01
_WALLSTEP=  1.260000000000000    
!DFSCF=  0.000000000000000    
!SCSGRD=  0.000000000000000    
_NCEN=  6.000000000000000    
_CPUTOT=  11.11000000000000    
_DFTEXFAC=  1.000000000000000    
_DMX=-0.7668038999767635E-01
_DMY=-0.5230330862614674E-01
_DMZ=  1.265377027831583    
_DMX_SCF=-0.7668038999767635E-01
_DMY_SCF=-0.5230330862614674E-01
_DMZ_SCF=  1.265377027831583    
_FREQUENCIES= 0.4677899246992068E-04
_HOMO=  10.10000000000000    
_EHOMO=-0.4706405875259960    
_LUMO=  11.10000000000000    
_ELUMO= 0.1334554011689932    
_ENERGY= -152.1029126777532    
_ENERGY_METHOD=HF
_ENERGY_BASIS=6-311G(D,P)
_GEOMETRY_METHOD=HF
_GEOMETRY_BASIS=6-311G(D,P)
_ENUC=  36.51034588628396    
_GRADENERG= -152.1029119736371    
_GRADEXFAC=  9999.000000000000    
_GRADMETHOD=  1.000000000000000    
_NMRMETHOD=  0.000000000000000    
_NMRMAGNET=  0.000000000000000    
_VIRIAL=-0.2556622703469748E-03
!GRID_FREEZE= -1.000000000000000    
!NEESE_INDEX=  0.000000000000000    
_ITERATIONS=  12.00000000000000    
_LASTNELEC=  20.00000000000000    
_LASTSPIN=  0.000000000000000    
_LASTSYM=  1.000000000000000    
_MPP_PROG=  1.000000000000000    
_MSNSTATES=  0.000000000000000    
_RS2PHASE=  0.000000000000000    
_NPROC_MPP=  6.000000000000000    
_NPROC_SMP=  6.000000000000000    
_NUMSTEP=  0.000000000000000    
_OPTCONVMX= 0.2990383916738769E-01
_OPTCONVRMS= 0.9523954559919921E-02
_OPTGRAD= 0.2013312717859206E-03
_OPTGRADMX= 0.1237090269246231E-03
_OPTGRADRMS= 0.5811933198094549E-04
!GMAXLAST= 0.1237090269246231E-03
!DMAXLAST= 0.2990383916738769E-01
!DELAST= 0.1660647740209242E-05
_OPTSTEP=  22.00000000000000    
_ORBITAL=  2100.200000000000    
_PI=  3.141592653589793    
_SEIG_MIN= 0.1412307709643692E-01
_SEWPROP=TRUE
_STATUS=  1.000000000000000    
_SYSTOT=  1.510000000000000    
_VERSION=  2024001.000000000    
_WALLTOT=  12.63000000000000    
_ZPE= 0.4625809055515877E-01
_DATE=16-Sep-24
_LASTORB=0
_OUTPUT=/home/lme/Theoretische_Chemie/Nomodeco/deuterium_calculations/h2o_dimer/h2o_dimer_d/h2o_dimer.out
_PGROUP=C1
_TIME=12:47:12
_LIBMOL=/usr/local/molpro/molpro_2024.1.0_sockets/lib/
_VIGRDC=  0.000000000000000    
!VIBCNT=  0.000000000000000    
!SURFREC=  0.000000000000000    
!XSURFREC=  0.000000000000000    
!XPOLYREC=  0.000000000000000    
!ROTREC=  0.000000000000000    
!POLYREC=  0.000000000000000    
!DIPREC=  0.000000000000000    
!DIP4DREC=  0.000000000000000    
!DIPROT=  0.000000000000000    
!DIP4DROT=  0.000000000000000    
!PTREC=  0.000000000000000    
!PT4DREC=  0.000000000000000    
!VSCFREC=  0.000000000000000    
!VCIREC=  0.000000000000000    
!PVCIREC=  0.000000000000000    
!VMP2REC=  0.000000000000000    
!VMCSCFREC=  0.000000000000000    
!VMRCIREC=  0.000000000000000    
!VIBSTATEREC=  0.000000000000000    
!VIBSTATECNT=  0.000000000000000    
!VIBINFO=  0.000000000000000    
!GAREC=  0.000000000000000    
!SCFORB=  21002.00000000000    
!DEFCORE=  2.000000000000000    
!SCORE=  0.000000000000000    
!NEWMOL=  0.000000000000000    
!NEWSYM=  0.000000000000000    
_SLFILES=slscratch
_NGSSTO=  9.000000000000000    
_SIN=SIN
_COS=COS
_TAN=TAN
_ACOS=ACOS
_ASIN=ASIN
_ATAN=ATAN
_COSH=COSH
_SINH=SINH
_TANH=TANH
_ABS=ABS
_MOD=MOD
_ERF=ERF
_REFC=REFC
_ERFC=ERFC
_HYPOT=HYPOT
_J0=J0
_J1=J1
_JN=JN
_GAMMA=GAMMA
_LGAMMA=LGAMMA
_Y0=Y0
_Y1=Y1
_YN=YN
_EXP=EXP
_LOG=LOG
_LOG10=LOG10
_SQRT=SQRT
_INT=INT
_NINT=NINT
_MAX=MAX
_MIN=MIN
_COSMO=  0.000000000000000    
_COSMOIT=  0.000000000000000    
_COSMOES=  0.000000000000000    
_COSMOEDS=  0.000000000000000    
_COSMOEC=  0.000000000000000    
_COSMOEDCORR=  0.000000000000000    
_FEPSI=  1.000000000000000    
_SL_IsMM=  0.000000000000000    
_SL_NSYM=  1.000000000000000    
_SL_System_BitSw=  0.000000000000000    
_SL_Unique_atoms=  0.000000000000000    
_SL_GRAD=  0.000000000000000    
_SL_MAXUPD_Hess=  5.000000000000000    
_SL_N_PRINT_COD=  5.000000000000000    
_SL_PRINT_CODES=  0.000000000000000    
_SL_BasType=  0.000000000000000    
_SL_Energy_Pred=  0.000000000000000    
_SL_New_Coords=  0.000000000000000    
_SL_Total_Nuclea=  0.000000000000000    
_SL_Highest_Mltp=  0.000000000000000    
_SL_Ref_Geom=  0.000000000000000    
_SL_Symmetry_ope=  1.000000000000000    
_SL_agrad=  0.000000000000000    
_SL_GrdMax=  0.000000000000000    
_SL_GrdNorm=  0.000000000000000    
_SL_GrdRMS=  0.000000000000000    
_SL_Hss_Q=  0.000000000000000    
_SL_Hss_X=  0.000000000000000    
_SL_BMxOld=  0.000000000000000    
_SL_KtB=  0.000000000000000    
_SL_TROld=  0.000000000000000    
_SL_No_of_Intern=  0.000000000000000    
_SL_Hess=  0.000000000000000    
_SL_K=  0.000000000000000    
!LATTICE= -1.000000000000000    
!NEWLATTICE=  0.000000000000000    
!LATGRAD_VAR=FALSE
!SEW_LATTICE=  1.000000000000000    
!AIC_ONEEL=  0.000000000000000    
!LOCAL=  0.000000000000000    
!SAVEDOM= -1.000000000000000    
!RESTDOM= -1.000000000000000    
!SAVEDOM_HF= -1.000000000000000    
!RESTDOM_HF= -1.000000000000000    
!HESSREC=  5300.200000000000    
!FREQREC=  5400.200000000000    
!NMODREC=  5450.200000000000    
!GTASKS=  0.000000000000000    
!HTASKS=  0.000000000000000    
!SAVEDOM_EOM= -1.000000000000000    
!RESTDOM_EOM= -1.000000000000000    
!GRADSTATE= -1.000000000000000    
!DEBUG=  0.000000000000000    
!CFIT_CPHF=  0.000000000000000    
!RDOMAUX_CPHF=  0.000000000000000    
!THRAO_CPHF= 0.1000000000000000E-11
!THRMO_CPHF= 0.1000000000000000E-11
!THROV_CPHF= 0.1000000000000000E-13
!THRSW_CPHF= 0.1000000000000000E-11
!THRPROD_CPHF= 0.1000000000000000E-11
!THRAOPR_CPHF= 0.1000000000000000E-11
!CFIT_SCFGRD=  0.000000000000000    
!RDOMAUX_SCFGRD=  0.000000000000000    
!THRAO_SCFGRD= 0.1000000000000000E-11
!THRMO_SCFGRD= 0.1000000000000000E-11
!THROV_SCFGRD= 0.1000000000000000E-13
!THRSW_SCFGRD= 0.1000000000000000E-11
!THRPROD_SCFGRD= 0.1000000000000000E-11
!THRAOPR_SCFGRD= 0.1000000000000000E-11
!LOCFIT_SCF=  0.000000000000000    
!LOCFIT_MP2=  0.000000000000000    
_RIDOM=  0.000000000000000    
!CC2_METHOD=  0.000000000000000    
_BASIS2006=FALSE
_SVDDEL= -1.000000000000000    
_SVDDELA= -1.000000000000000    
_SVDDELP= -1.000000000000000    
_SVDDELF= -1.000000000000000    
_SVDDELS= -1.000000000000000    
_SVDDEL_ABS= -1.000000000000000    
_SVDDELA_ABS= -1.000000000000000    
_SVDDELP_ABS= -1.000000000000000    
_SVDDELF_ABS= -1.000000000000000    
_SVDDELS_ABS= -1.000000000000000    
_MAXBASIS=  0.000000000000000    
!OPT_CONICAL=  0.000000000000000    
!CLEARSP_JGRID=  0.000000000000000    
_GRDHYBR=  0.000000000000000    
_STATEGRAD=  1.000000000000000    
_4EXT_NDISKS=  1.000000000000000    
!EMBEDFLAG=  1.000000000000000    
!EMBED=FALSE
!EMBED_F12=FALSE
!EMBEDNUC=  0.000000000000000    
_EMBEDENERGY=  0.000000000000000    
!EMBED_DFC=FALSE
!NUM_VOIDS=  0.000000000000000    
_IBODY=  0.000000000000000    
_EMBE_CORR=  0.000000000000000    
!EMBED_PROJ=FALSE
!EMB_PROJ_ZMU=  1000000.000000000    
!CORRECTION_HF=  0.000000000000000    
!EMBED_AORB=  0.000000000000000    
!EMBED_NACORR=  0.000000000000000    
!EMBED_MP2=FALSE
!EMBED_TRUNC_PERTURBATION=FALSE
!EMBED_FROZEN=  0.000000000000000    
!EMBED_ACTIVE=  0.000000000000000    
_CHANGE_BASIS=FALSE
_RESTORE_BASIS=FALSE
_FIX_EMBED_GUESS=FALSE
_EMBED_SCF=FALSE
_NEOBAS=FALSE
_NEOOVE=FALSE
_PRINEO=FALSE
_HUZINAGA_T=FALSE
_HUZINAGA_F=FALSE
_HUZINAGA=FALSE
_HUZINAGA_CORRECT=FALSE
!FASTLATGRAD=  1.000000000000000    
!FASTVLAMBDA= -1.000000000000000    
!IFORCE= -1.000000000000000    
!USESYM= -1.000000000000000    
_SINDEX=  0.000000000000000    
_AVDOM_OSV=  0.000000000000000    
_AVDOM_PNO=  0.000000000000000    
_AVDOM_PNOCC=  0.000000000000000    
_AVDOM_TNO=  0.000000000000000    
_AVDOM_TNOIT=  0.000000000000000    
_AVDOM_PAO=  0.000000000000000    
_AVDOM_LMO=  0.000000000000000    
_CC2OSV_FLAG=  0.000000000000000    
_EOMCCSD_CONV=FALSE
_TMADC2_FLAG=FALSE
_PROPADC2_FLAG=FALSE
_LEN_VirQ=  0.000000000000000    
_GRDCC2LR_FLAG=FALSE
_GRDADC2_FLAG=FALSE
_RO_VGLOBAL=  0.000000000000000    
_OPT=FALSE
_FREQ=FALSE
_HESS=FALSE
_CMRCC_callName=EMPTY
_CMRCC_callCount=  0.000000000000000    
_GECCO_CIROOT=  1.000000000000000    
_SYM_CATION=  1.000000000000000    
_MON_A=FALSE
_MON_B=FALSE
_MAXGEOM=  100.0000000000000    
!MAXGEOM=  100.0000000000000    
_NCORE=  0.000000000000000    
_NLARGECORE=  0.000000000000000    
GX1= 0.5834866926413845E-01
GY1= 0.2909437638036154E-01
GZ1= -1.578839205759443    
GX2= 0.2038138574649277E-01
GY2=-0.8463973518584770E-02
GZ2=-0.6352736620734878    
GX3=-0.7740330678084113    
GY3=-0.2950282593619954    
GZ3= -1.872783247010928    
GX4=-0.5349622576417241E-01
GY4=-0.6812627454562178E-01
GZ4=  1.396599688050022    
GX5= 0.3906300171575122E-01
GY5= 0.7740123249750417    
GZ5=  1.807829342531073    
GX6= 0.5985778522625341    
GY6=-0.6238008231730313    
GZ6=  1.787630633042463    
OX1= 0.1102630046455911    
OY1= 0.5498040312566416E-01
OZ1= -2.983573693707021    
HX2= 0.3851523710122270E-01
HY2=-0.1599459187621034E-01
HZ2= -1.200493235506953    
HX3= -1.462710509561785    
HY3=-0.5575226092192301    
HZ3= -3.539047427638027    
OX4=-0.1010932153954348    
OY4=-0.1287400007822891    
OZ4=  2.639190916152328    
H1X5= 0.7381837484855636E-01
H1Y5=  1.462671311287668    
H1Z5=  3.416302337445998    
HX6=  1.131148205042895    
HY6= -1.178812712113138    
HZ6=  3.378132308441647    
[Atoms] Angs
O     1    8         0.0583486693        0.0290943764       -1.5788392058
H     2    1         0.0203813857       -0.0084639735       -0.6352736621
H     3    1        -0.7740330678       -0.2950282594       -1.8727832470
O     4    8        -0.0534962258       -0.0681262745        1.3965996881
H     5    1         0.0390630017        0.7740123250        1.8078293425
H     6    1         0.5985778523       -0.6238008232        1.7876306330
[GTO]
   1 0
 s    6  1.00
  0.8588500000D+04  0.1895150083D-02
  0.1297230000D+04  0.1438590063D-01
  0.2992960000D+03  0.7073200310D-01
  0.8737710000D+02  0.2400010105D+00
  0.2567890000D+02  0.5947970261D+00
  0.3740040000D+01  0.2808020123D+00
 s    3  1.00
  0.4211750000D+02  0.1138890124D+00
  0.9628370000D+01  0.9208111006D+00
  0.2853320000D+01 -0.3274470358D-02
 s    1  1.00
  0.9056610000D+00  0.1000000000D+01
 s    1  1.00
  0.2556110000D+00  0.1000000000D+01
 p    3  1.00
  0.4211750000D+02  0.3651139738D-01
  0.9628370000D+01  0.2371529830D+00
  0.2853320000D+01  0.8197019412D+00
 p    1  1.00
  0.9056610000D+00  0.1000000000D+01
 p    1  1.00
  0.2556110000D+00  0.1000000000D+01
 d    1  1.00
  0.1292000000D+01  0.1000000000D+01
  
   2 0
 s    3  1.00
  0.3386500000D+02  0.2549381454D-01
  0.5094790000D+01  0.1903731086D+00
  0.1158790000D+01  0.8521614860D+00
 s    1  1.00
  0.3258400000D+00  0.1000000000D+01
 s    1  1.00
  0.1027410000D+00  0.1000000000D+01
 p    1  1.00
  0.7500000000D+00  0.1000000000D+01
  
   3 0
 s    3  1.00
  0.3386500000D+02  0.2549381454D-01
  0.5094790000D+01  0.1903731086D+00
  0.1158790000D+01  0.8521614860D+00
 s    1  1.00
  0.3258400000D+00  0.1000000000D+01
 s    1  1.00
  0.1027410000D+00  0.1000000000D+01
 p    1  1.00
  0.7500000000D+00  0.1000000000D+01
  
   4 0
 s    6  1.00
  0.8588500000D+04  0.1895150083D-02
  0.1297230000D+04  0.1438590063D-01
  0.2992960000D+03  0.7073200310D-01
  0.8737710000D+02  0.2400010105D+00
  0.2567890000D+02  0.5947970261D+00
  0.3740040000D+01  0.2808020123D+00
 s    3  1.00
  0.4211750000D+02  0.1138890124D+00
  0.9628370000D+01  0.9208111006D+00
  0.2853320000D+01 -0.3274470358D-02
 s    1  1.00
  0.9056610000D+00  0.1000000000D+01
 s    1  1.00
  0.2556110000D+00  0.1000000000D+01
 p    3  1.00
  0.4211750000D+02  0.3651139738D-01
  0.9628370000D+01  0.2371529830D+00
  0.2853320000D+01  0.8197019412D+00
 p    1  1.00
  0.9056610000D+00  0.1000000000D+01
 p    1  1.00
  0.2556110000D+00  0.1000000000D+01
 d    1  1.00
  0.1292000000D+01  0.1000000000D+01
  
   5 0
 s    3  1.00
  0.3386500000D+02  0.2549381454D-01
  0.5094790000D+01  0.1903731086D+00
  0.1158790000D+01  0.8521614860D+00
 s    1  1.00
  0.3258400000D+00  0.1000000000D+01
 s    1  1.00
  0.1027410000D+00  0.1000000000D+01
 p    1  1.00
  0.7500000000D+00  0.1000000000D+01
  
   6 0
 s    3  1.00
  0.3386500000D+02  0.2549381454D-01
  0.5094790000D+01  0.1903731086D+00
  0.1158790000D+01  0.8521614860D+00
 s    1  1.00
  0.3258400000D+00  0.1000000000D+01
 s    1  1.00
  0.1027410000D+00  0.1000000000D+01
 p    1  1.00
  0.7500000000D+00  0.1000000000D+01


[MO]
 Sym=      1.1
 Ene=     -20.5725
 Spin= Alpha
 Occup=    2.000000
1 -0.000020030904749
2 -0.000024475378860
3 0.000063427013541
4 -0.000234453467511
5 -0.000005813390460
6 -0.000001985395959
7 -0.000010086588285
8 0.000023145889169
9 0.000008025748007
10 0.000037302612971
11 0.000000364444049
12 0.000003464913461
13 -0.000134678484030
14 -0.000004652621025
15 0.000005279248189
16 -0.000000626627164
17 -0.000005361329864
18 -0.000001670695295
19 -0.000000626105351
20 -0.000030617163532
21 0.000157613920617
22 0.000198122610279
23 -0.000003822190215
24 -0.000001575170265
25 0.000030807691335
26 0.000003369089298
27 0.000051910818526
28 -0.000076621877763
29 0.000016113963707
30 0.000006055106206
31 0.000014040486100
32 0.55142844832678
33 0.47167028125404
34 0.005610666922260
35 -0.000540718969935
36 0.001156357746988
37 0.000445852499840
38 0.001161063415851
39 -0.000402024539951
40 -0.000154294053557
41 -0.000448303186957
42 0.000048715778252
43 0.000017262183498
44 0.000162890832305
45 0.000031891918853
46 -0.000073605807840
47 0.000041713888986
48 0.000059475695094
49 -0.000066411708206
50 -0.000028823003649
51 0.000194852440867
52 0.000123913660443
53 0.000055435101350
54 0.000022769010427
55 -0.000064649265820
56 -0.000028015804245
57 0.000194794656037
58 0.000124446512151
59 0.000055036926362
60 -0.000028508370907
61 0.000063230558785
62 -0.000026249238099
 Sym=      2.1
 Ene=     -20.5082
 Spin= Alpha
 Occup=    2.000000
1 0.55142512411532
2 0.47167109113678
3 0.005620088601078
4 -0.000574338111700
5 -0.001338443718444
6 -0.000554573251157
7 0.000912743857835
8 0.000471886179682
9 0.000194634140696
10 -0.000285990136895
11 -0.000073549457298
12 -0.000028611234337
13 -0.000026894176293
14 -0.000032450094048
15 0.000087493137656
16 -0.000055043043608
17 -0.000063976109715
18 -0.000046574867678
19 -0.000013952325229
20 0.000196435096805
21 0.000116869426574
22 0.000236689416831
23 -0.000027455079221
24 -0.000009370468421
25 -0.000059198372307
26 0.000207664601842
27 0.000111890429816
28 0.000042644720572
29 0.000052762834810
30 0.000019635656685
31 0.000055960944004
32 0.000020604645858
33 0.000015692312126
34 0.000018031787865
35 -0.000062911151264
36 0.000002369236183
37 0.000000791599312
38 0.000010614650639
39 -0.000009493849824
40 -0.000003296178605
41 -0.000032036957950
42 0.000003912524310
43 0.000000540277261
44 0.000087815866329
45 0.000002095751486
46 -0.000001409820430
47 -0.000000685931056
48 0.000001964672751
49 0.000000732515852
50 0.000000308383445
51 -0.000003879424450
52 0.000022713077033
53 -0.000035390765512
54 -0.000000216405862
55 -0.000000751948376
56 -0.000011725274406
57 -0.000004015147031
58 0.000023509833287
59 -0.000035990244731
60 -0.000000909341589
61 0.000000720984494
62 -0.000011804161420
 Sym=      3.1
 Ene=      -1.3786
 Spin= Alpha
 Occup=    2.000000
1 -0.006522048477870
2 -0.010840736797689
3 0.030077414715991
4 0.022613854031522
5 -0.001461527116703
6 -0.000635509031540
7 0.002447498480955
8 -0.002737307322032
9 -0.001155259997207
10 0.003040098246576
11 -0.000840583849614
12 -0.000398865918779
13 0.003260830767926
14 0.000049886103899
15 -0.000499696782345
16 0.000449810678445
17 0.000298395894222
18 0.000037883147915
19 -0.000011057434531
20 0.008543381420703
21 0.006507229148837
22 -0.001460943071460
23 -0.000035510457875
24 0.000022950784059
25 -0.001710283325671
26 0.005215541929171
27 0.003050078955322
28 0.001621300449569
29 0.001102681808757
30 0.000427644582979
31 0.000430970687881
32 -0.11342293522431
33 -0.18947690909721
34 0.53804565498306
35 0.37615599187155
36 0.024691522559159
37 0.009515756406857
38 0.025267047128987
39 0.041262321915489
40 0.015901986557973
41 0.042209101880853
42 0.014046311163618
43 0.005462602015928
44 0.009580459143750
45 -0.001859173329114
46 0.004403436759365
47 -0.002544263430252
48 -0.003563137700130
49 0.005698096272236
50 0.002418265857607
51 0.095534664034294
52 0.078529703218619
53 -0.002866178563920
54 -0.000654965292046
55 -0.025688727327345
56 -0.010019081267186
57 0.095539753087383
58 0.078515526141027
59 -0.002851925517689
60 -0.018292228195669
61 0.018382851230456
62 -0.009382694458238
 Sym=      4.1
 Ene=      -1.3175
 Spin= Alpha
 Occup=    2.000000
1 -0.11316134161946
2 -0.18896819321010
3 0.53522293033636
4 0.37947032169209
5 -0.028868016961831
6 -0.011982360825370
7 0.020948963864295
8 -0.048380590376791
9 -0.020062643070901
10 0.034468522468623
11 -0.014957808732947
12 -0.006289406238988
13 0.013911859192450
14 0.002139312014284
15 -0.006696068223127
16 0.004556756208843
17 0.004773523510103
18 0.001607780734679
19 0.000285546159179
20 0.094052286480263
21 0.075048597660965
22 -0.008495496412177
23 -0.001272906923132
24 0.000139720361973
25 -0.027874052863709
26 0.097083822080185
27 0.081135970150861
28 0.000491479504483
29 0.023393949530721
30 0.009043784958969
31 0.011030512495634
32 0.007343421885578
33 0.012305147835616
34 -0.035417442717493
35 -0.022595038065311
36 -0.001824779290513
37 -0.000668105141056
38 -0.004082749113582
39 -0.002817554247339
40 -0.001051914030061
41 -0.004912659894391
42 -0.000964679708658
43 -0.000305432071401
44 -0.006014772378273
45 0.000113688223571
46 -0.000275462103837
47 0.000161773880266
48 0.000222722683628
49 -0.000477103667440
50 -0.000201733606468
51 -0.006783005124487
52 -0.006946806578323
53 0.002121905213095
54 0.000015358661071
55 0.001911513369859
56 0.000882629413934
57 -0.006782912790563
58 -0.006975234586272
59 0.002128232499525
60 0.001342870908582
61 -0.001396333889714
62 0.000840320250278
 Sym=      5.1
 Ene=      -0.7471
 Spin= Alpha
 Occup=    2.000000
1 0.000005968696506
2 0.000010552644457
3 -0.000041974533110
4 0.000042991681791
5 -0.000590237116916
6 0.001527667247140
7 0.000073323758763
8 -0.000732632997839
9 0.001896172907164
10 0.000097431326208
11 -0.001156087116352
12 0.002915626919407
13 0.000147586829351
14 0.000050338890875
15 -0.000060166509504
16 0.000009827618629
17 -0.000065924712400
18 -0.000042895500801
19 0.000096594765387
20 0.000022573099278
21 -0.000003317322316
22 -0.000059694696623
23 -0.000393962768729
24 0.000988977998927
25 0.000023277357883
26 -0.000024996394982
27 -0.000066366746483
28 0.000038721891363
29 -0.000027555866289
30 0.000040425313202
31 -0.000002622830229
32 -0.000003449669679
33 -0.000005910406981
34 0.000018550732584
35 0.000039836386837
36 -0.085032280182482
37 0.21244260042972
38 0.003071484365763
39 -0.13064217091416
40 0.32639820480965
41 0.004722252766720
42 -0.081085218203714
43 0.20259896433146
44 0.002932236967206
45 -0.012476728374337
46 0.012012672220816
47 0.000464056153521
48 0.015221513188996
49 -0.007157974748321
50 0.018634536598595
51 0.15074684358731
52 0.20548262916696
53 0.049004963189089
54 -0.009447339652997
55 -0.023894963969529
56 -0.018301089526356
57 -0.15074281423553
58 -0.20552816844660
59 -0.049007129560745
60 0.023507193223195
61 -0.011223843730660
62 0.017803011323189
 Sym=      6.1
 Ene=      -0.6906
 Spin= Alpha
 Occup=    2.000000
1 0.000595607350427
2 0.001001063506642
3 -0.002724886769654
4 -0.001217043330999
5 0.11297785605527
6 0.040575112166401
7 0.18479855517714
8 0.17351450420444
9 0.062336860900587
10 0.28294329538228
11 0.10450703397498
12 0.037394616570735
13 0.17745281121559
14 -0.019428121564916
15 -0.002924052385782
16 0.022352173950698
17 -0.008687907843494
18 -0.009609686276252
19 -0.004436515376011
20 0.14721816463440
21 0.19637076574120
22 0.062273555157770
23 0.009024117358427
24 0.004296514461698
25 -0.030461337903896
26 -0.14529899671959
27 -0.20398105701822
28 -0.057779262487501
29 -0.028237755964364
30 -0.011233092885226
31 0.000177961717399
32 -0.004067310206279
33 -0.006951970896904
34 0.021327343535639
35 0.044351524320552
36 -0.013527627973320
37 -0.004673575597557
38 -0.054333436663784
39 -0.020255966836911
40 -0.006969649705407
41 -0.083496598972338
42 -0.011286068269050
43 -0.003579414979160
44 -0.068612333112503
45 0.000387285572953
46 -0.000005666225749
47 -0.000381619347205
48 0.000273844808067
49 -0.003167363222983
50 -0.001268536781817
51 -0.018762164049090
52 -0.029341267527858
53 -0.004983243867041
54 -0.001397988551289
55 0.006251557004914
56 -0.002826359811316
57 -0.018707292290738
58 -0.029284731948849
59 -0.004977942056470
60 0.003266866143740
61 -0.005414834502935
62 -0.002996049430770
 Sym=      7.1
 Ene=      -0.6048
 Spin= Alpha
 Occup=    2.000000
1 -0.011237943792416
2 -0.018956466123361
3 0.054357040298684
4 0.10336892108810
5 0.065016167944208
6 0.025337759362372
7 0.016420284949666
8 0.095771821493467
9 0.037267638616547
10 0.027216672905999
11 0.081569482858393
12 0.031836071373424
13 0.014680918128832
14 -0.005824759775223
15 0.001181947155766
16 0.004642812619456
17 -0.003807879805996
18 -0.000150405270216
19 -0.000129841094896
20 0.009617894529053
21 0.009205831042589
22 -0.036119387694796
23 0.007120966363215
24 0.002909752712304
25 -0.004757250719372
26 -0.049508999979855
27 -0.071420115824303
28 -0.015360793695946
29 -0.007788044273341
30 -0.002986372710208
31 -0.005029594328470
32 0.034910773627259
33 0.059345293744548
34 -0.17913639645682
35 -0.30448684238212
36 0.15914349139928
37 0.061173504583740
38 0.17458475340735
39 0.23604862111118
40 0.090691134397017
41 0.26196351093321
42 0.21444496510343
43 0.082513608484146
44 0.23344005082241
45 0.001767138653986
46 -0.002315878136668
47 0.000548739482682
48 0.001955646699344
49 0.014611628765872
50 0.005788394125008
51 0.083719280485848
52 0.12816697687794
53 0.031384708939178
54 0.015491141639221
55 -0.023057216331320
56 0.005683372281017
57 0.083732391062209
58 0.12826819550124
59 0.031371102761998
60 -0.004645600722674
61 0.027229810417795
62 0.006401870855829
 Sym=      8.1
 Ene=      -0.5466
 Spin= Alpha
 Occup=    2.000000
1 -0.032340251226544
2 -0.055021803055010
3 0.16684825585453
4 0.27512481749012
5 0.16777119674029
6 0.069384721374731
7 -0.11489797987962
8 0.24908169149502
9 0.10295645895139
10 -0.16842435285814
11 0.22195688643333
12 0.092065198681788
13 -0.16453600411910
14 -0.006563427469424
15 0.007876354085032
16 -0.001312926615608
17 -0.008144982098098
18 0.008079956574247
19 0.003539758417921
20 -0.069133538682483
21 -0.10322285684594
22 -0.011347361065771
23 0.017341291371224
24 0.006552858287173
25 0.014969144330174
26 -0.079517986852634
27 -0.13428758408641
28 -0.026860054838420
29 -0.008177698709214
30 -0.002689645959462
31 -0.023942625531800
32 -0.009671547727573
33 -0.016514582041079
34 0.051341003472893
35 0.076382843218552
36 -0.12920546210682
37 -0.052598982876798
38 0.061466918328996
39 -0.19418566252348
40 -0.079049654839518
41 0.092257507235214
42 -0.19407735239154
43 -0.079258545130784
44 0.10965191709170
45 -0.005919920039327
46 0.000260979666159
47 0.005658940373167
48 -0.003340736264002
49 -0.002835946241471
50 -0.001203752353938
51 -0.017291142426904
52 -0.030233038533942
53 -0.007158377416260
54 -0.013781889213046
55 0.001136994106653
56 0.008365856760414
57 -0.017309546426181
58 -0.030219205298981
59 -0.007246751353260
60 -0.009110817533681
61 -0.010541032009484
62 0.008198085854292
 Sym=      9.1
 Ene=      -0.5247
 Spin= Alpha
 Occup=    2.000000
1 0.015212921628275
2 0.025926774262083
3 -0.079956378903061
4 -0.13112077147908
5 -0.082697067973478
6 -0.035716428448971
7 0.10175879261569
8 -0.12204998637751
9 -0.052743711549954
10 0.15196524852899
11 -0.11604428138682
12 -0.050108678107138
13 0.13644280700359
14 0.001157189059825
15 -0.005092191969576
16 0.003935002909751
17 0.003645402893954
18 -0.006282084251778
19 -0.002806250211588
20 0.054141670885524
21 0.094414122161123
22 -0.033185444781226
23 -0.010911913795977
24 -0.004036990534235
25 -0.015394352522686
26 0.026994513488114
27 0.044316736835729
28 0.019886701845864
29 0.000581824793786
30 -0.000185113633944
31 0.016104913292565
32 0.003414902878939
33 0.005782096573650
34 -0.015776620138871
35 -0.040931697804632
36 -0.15183600141829
37 -0.063556841632477
38 0.19170681668593
39 -0.22793682803356
40 -0.095428225573330
41 0.28865347749826
42 -0.24947433721004
43 -0.10412312830533
44 0.29620583265702
45 -0.010382856785848
46 -0.001815683549615
47 0.012198540335463
48 -0.004747825043659
49 0.001723086578854
50 0.000478334744572
51 0.007376353106314
52 0.015742189272409
53 0.009789964477816
54 -0.015662167204713
55 -0.010666106281786
56 0.018843038317299
57 0.007397319292678
58 0.015762069506066
59 0.009834861739894
60 -0.018514290012931
61 -0.003558057896385
62 0.018949280511422
 Sym=     10.1
 Ene=      -0.4706
 Spin= Alpha
 Occup=    2.000000
1 0.000000728077603
2 0.000002610127871
3 -0.000040197241466
4 0.000226492092947
5 -0.10733999857713
6 0.26972133454997
7 0.006533266497850
8 -0.16036597438450
9 0.40291566445214
10 0.009749512474424
11 -0.17395612396817
12 0.43719536680756
13 0.010683690763612
14 0.008178311384801
15 -0.008543711157997
16 0.000365399773196
17 -0.009908283979518
18 -0.003699662919505
19 0.008457182733065
20 0.000036902553145
21 0.000027092277960
22 -0.000598192181449
23 -0.010948440206238
24 0.027495938809886
25 0.000659226586969
26 0.000004418727361
27 -0.000026524713613
28 0.000190655634160
29 -0.011603055524654
30 0.029142622722168
31 0.000700485442313
32 0.000036544604869
33 0.000063292240831
34 -0.000214916318082
35 -0.000174717938899
36 0.000884306723787
37 -0.002731354260036
38 0.000353277096232
39 0.001273529891654
40 -0.003954941818492
41 0.000591813243319
42 -0.003277913268568
43 0.007388554525917
44 0.000543630215364
45 -0.000233274990188
46 0.000207332703979
47 0.000025942286209
48 0.000247259892220
49 0.000015898705977
50 0.000000982568439
51 -0.000865945177696
52 -0.017499353541309
53 0.017213537135508
54 0.000997878038179
55 0.001331135393632
56 0.001197367395251
57 0.000982559805116
58 0.017421089581823
59 -0.016732969944998
60 -0.001716098657714
61 0.000296869505439
62 -0.001059488789314
 Sym=     11.1
 Ene=       0.1335
 Spin= Alpha
 Occup=    0.000000
1 0.011626567390116
2 0.019541336041523
3 -0.051800551082008
4 -0.17043774429211
5 0.017367648251687
6 0.007285690751170
7 -0.021341819034545
8 0.021220928041325
9 0.009192321096991
10 -0.039079477564468
11 0.051108073902775
12 0.019988223736903
13 0.004977842664923
14 -0.001000106418492
15 -0.000288938438664
16 0.001289044857156
17 -0.000426195615721
18 0.001422071134438
19 0.000548785306503
20 0.010480364017643
21 -0.058144113890132
22 0.069002417043418
23 0.001563341091808
24 0.000325118522263
25 0.009295461299548
26 0.012801665728013
27 -0.045360428303754
28 0.33282400731796
29 -0.002028750330859
30 -0.000649968495962
31 -0.007180379869976
32 0.034162759490757
33 0.056164972983930
34 -0.11536380766236
35 -0.82003698729976
36 -0.043597793164920
37 -0.016782769528154
38 -0.040719601687710
39 -0.069058475998204
40 -0.026657171689996
41 -0.062087019017539
42 -0.12550420527453
43 -0.048208743572630
44 -0.12821123502933
45 -0.000150157342685
46 -0.000797022975362
47 0.000947180318048
48 0.000437016956726
49 -0.004265942691560
50 -0.001744131556048
51 0.034360745497953
52 -0.049514578845193
53 0.78793709537021
54 -0.003753452020233
55 0.003500363297419
56 -0.000493057803278
57 0.034402226785341