[Molden Format]
[Molpro variables]
_NUMVAR=  1070.000000000000    
_AVOGAD= 0.6022140760000000E+24
_BOLTZ= 0.1380649000000000E-22
_CLIGHTSI=  299792458.0000000    
_JOULE= 0.4359744722207100E-17
_JPCAL=  4.184000000000000    
_PLANCK= 0.6626070150000000E-33
_BOHR= 0.5291772109030000E-10
_ECHARG= 0.1602176634000000E-18
_ENULL= 0.8854187812800001E-11
_MU= 0.1660539066600000E-26
_EMASS= 0.9109383701500001E-30
_AMU2AU=  1822.888486217313    
_CLIGHT=  29979245800.00000    
_EV= 0.3674932217565494E-01
_KJOULE= 0.3808798847133432E-03
_KJOULE/MOL= 0.3808798847133432E-03
_CM= 0.4556335252912009E-05
_CM-1= 0.4556335252912009E-05
_DEB2SI= 0.3335640951981520E-29
_KCAL= 0.1593601437640628E-02
_KCAL/MOL= 0.1593601437640628E-02
_KELVIN= 0.3166811563455608E-05
_HERTZ= 0.1519829846057038E-15
_HZ= 0.1519829846057038E-15
_TOA= 0.5291772109030000    
_TOANG= 0.5291772109030000    
_TORAD= 0.1745329251994330E-01
_TOCM=  219474.6313631965    
_TODEBYE=  2.541746473194078    
_TOE= 0.4803204712570263E-09
_TOEV=  27.21138624598803    
_TOHERTZ=  6579683920501656.    
_TOHZ=  6579683920501656.    
_TOK=  315775.0248040668    
_TOKCAL=  627.5094740630558    
_TOKELVIN=  315775.0248040668    
_TOKJ=  2625.499639479825    
_TOKJOULE=  2625.499639479825    
_TOKG= 0.1660539066600000E-26
_ANG=  1.889726124625770    
_ANGSTROM=  1.889726124625770    
_RPAREF=  0.000000000000000    
_RPADISS=  0.000000000000000    
_IGNORE_UNDEF=  2.000000000000000    
_STRICTCHECK=  0.000000000000000    
!SEWARD=  0.000000000000000    
!MULTI=  0.000000000000000    
!DFMULTI=  0.000000000000000    
!NUMHESS=  0.000000000000000    
_SEW_ONEEL=  0.000000000000000    
_CPPDONE=FALSE
_DKROLL_DONE=  0.000000000000000    
_FNUC_DONE=  0.000000000000000    
_FOCKDONE=TRUE
_GRADONE=FALSE
_HESSDONE=TRUE
_INTDONE=TRUE
_SCFDONE=TRUE
_MODUL_BLOCK=FALSE
_MODUL_SLATER=TRUE
_MODUL_MRCC=FALSE
_MODUL_NBO6=FALSE
_MODUL_NECI=FALSE
_MODUL_AIMS=TRUE
_MODUL_HDF5=FALSE
_MODUL_GECCO=FALSE
_ISWINDOWS=FALSE
_MRCC_EXEC=
_FITC_AO_SAVED=FALSE
_FITC_MO_SAVED=FALSE
_LSTYP=SEWARD
_INTYP=INTS
_GEOMTYP=XYZ
_GRADTYP=ALASKA
_DIRECT=FALSE
_DKHO= -1.000000000000000    
_FNUC=  0.000000000000000    
_SYNCM=  0.000000000000000    
_BASIS=6-311G(D,P)
_ZCENTRE=MASS
_ZORIENT=  1.000000000000000    
_NELEC=  10.00000000000000    
!SPIN=  0.000000000000000    
_OPTCONV= 0.1689060953606701E-04
_QSDSTEP=  0.000000000000000    
_QSDIRC=  0.000000000000000    
_PROGRAM=FREQ
_CPUSTEP= 0.5900000000000001    
_SYSSTEP= 0.2999999999999997E-01
_WALLSTEP= 0.6300000000000000    
!DFSCF=  0.000000000000000    
!SCSGRD=  0.000000000000000    
_NCEN=  5.000000000000000    
_CPUTOT=  1.410000000000000    
_DFTEXFAC=  1.000000000000000    
_DMX=  0.000000000000000    
_DMY=-0.3253305436677623E-08
_DMZ=-0.1947713517398697E-04
_DMX_SCF=  0.000000000000000    
_DMY_SCF=-0.3253305436677623E-08
_DMZ_SCF=-0.1947713517398697E-04
_FREQUENCIES= 0.5820251841827688E-04
_HOMO=  1.200000000000000    
_EHOMO=-0.5460853121814730    
_LUMO=  5.100000000000000    
_ELUMO= 0.1622569475163128    
_ENERGY= -40.20901170098637    
_ENERGY_METHOD=HF
_ENERGY_BASIS=6-311G(D,P)
_GEOMETRY_METHOD=HF
_GEOMETRY_BASIS=6-311G(D,P)
_ENUC=  13.50669601141259    
_GRADENERG= -40.20901170167194    
_GRADEXFAC=  9999.000000000000    
_GRADMETHOD=  1.000000000000000    
_NMRMETHOD=  0.000000000000000    
_NMRMAGNET=  0.000000000000000    
_VIRIAL= 0.2469464214710092E-04
!GRID_FREEZE= -1.000000000000000    
!NEESE_INDEX=  0.000000000000000    
_ITERATIONS=  11.00000000000000    
_LASTNELEC=  10.00000000000000    
_LASTSPIN=  0.000000000000000    
_LASTSYM=  1.000000000000000    
_MPP_PROG=  0.000000000000000    
_MSNSTATES=  0.000000000000000    
_RS2PHASE=  0.000000000000000    
_NPROC_MPP=  1.000000000000000    
_NPROC_SMP=  6.000000000000000    
_NUMSTEP=  0.000000000000000    
_OPTCONVMX= 0.1588367301737954E-04
_OPTCONVRMS= 0.9751797962425147E-05
_OPTGRAD= 0.6249002320291779E-05
_OPTGRADMX= 0.6026215470230543E-05
_OPTGRADRMS= 0.3607863171787055E-05
!GMAXLAST= 0.6026215470230543E-05
!DMAXLAST= 0.1588367301737954E-04
!DELAST= 0.3001066275487574E-06
_OPTSTEP=  3.000000000000000    
_ORBITAL=  2100.200000000000    
_PI=  3.141592653589793    
_SEIG_MIN= 0.1247901404049133E-01
_SEWPROP=TRUE
_STATUS=  1.000000000000000    
_SYSTOT= 0.2200000000000000    
_VERSION=  2024001.000000000    
_WALLTOT=  1.640000000000000    
_ZPE= 0.4694821497985081E-01
_DATE=22-Sep-24
_LASTORB=0
_OUTPUT=/home/lme/Theoretische_Chemie/Nomodeco/deuterium_calculations/ch4/ch4.molpro/run/ch4_1.molpro/ch4_1.out
_PGROUP=Cs
_TIME=20:17:47
_LIBMOL=/usr/local/molpro/molpro_2024.1.0_sockets/lib/
_VIGRDC=  0.000000000000000    
!VIBCNT=  0.000000000000000    
!SURFREC=  0.000000000000000    
!XSURFREC=  0.000000000000000    
!XPOLYREC=  0.000000000000000    
!ROTREC=  0.000000000000000    
!POLYREC=  0.000000000000000    
!DIPREC=  0.000000000000000    
!DIP4DREC=  0.000000000000000    
!DIPROT=  0.000000000000000    
!DIP4DROT=  0.000000000000000    
!PTREC=  0.000000000000000    
!PT4DREC=  0.000000000000000    
!VSCFREC=  0.000000000000000    
!VCIREC=  0.000000000000000    
!PVCIREC=  0.000000000000000    
!VMP2REC=  0.000000000000000    
!VMCSCFREC=  0.000000000000000    
!VMRCIREC=  0.000000000000000    
!VIBSTATEREC=  0.000000000000000    
!VIBSTATECNT=  0.000000000000000    
!VIBINFO=  0.000000000000000    
!GAREC=  0.000000000000000    
!SCFORB=  21002.00000000000    
!DEFCORE=  1.000000000000000    
!SCORE=  0.000000000000000    
!NEWMOL=  0.000000000000000    
!NEWSYM=  0.000000000000000    
_SLFILES=slscratch
_NGSSTO=  9.000000000000000    
_SIN=SIN
_COS=COS
_TAN=TAN
_ACOS=ACOS
_ASIN=ASIN
_ATAN=ATAN
_COSH=COSH
_SINH=SINH
_TANH=TANH
_ABS=ABS
_MOD=MOD
_ERF=ERF
_REFC=REFC
_ERFC=ERFC
_HYPOT=HYPOT
_J0=J0
_J1=J1
_JN=JN
_GAMMA=GAMMA
_LGAMMA=LGAMMA
_Y0=Y0
_Y1=Y1
_YN=YN
_EXP=EXP
_LOG=LOG
_LOG10=LOG10
_SQRT=SQRT
_INT=INT
_NINT=NINT
_MAX=MAX
_MIN=MIN
_COSMO=  0.000000000000000    
_COSMOIT=  0.000000000000000    
_COSMOES=  0.000000000000000    
_COSMOEDS=  0.000000000000000    
_COSMOEC=  0.000000000000000    
_COSMOEDCORR=  0.000000000000000    
_FEPSI=  1.000000000000000    
_SL_IsMM=  0.000000000000000    
_SL_NSYM=  2.000000000000000    
_SL_System_BitSw=  0.000000000000000    
_SL_Unique_atoms=  0.000000000000000    
_SL_GRAD=  0.000000000000000    
_SL_MAXUPD_Hess=  5.000000000000000    
_SL_N_PRINT_COD=  5.000000000000000    
_SL_PRINT_CODES=  0.000000000000000    
_SL_BasType=  0.000000000000000    
_SL_Energy_Pred=  0.000000000000000    
_SL_New_Coords=  0.000000000000000    
_SL_Total_Nuclea=  0.000000000000000    
_SL_Highest_Mltp=  0.000000000000000    
_SL_Ref_Geom=  0.000000000000000    
_SL_Symmetry_ope=  1.000000000000000    
_SL_agrad=  0.000000000000000    
_SL_GrdMax=  0.000000000000000    
_SL_GrdNorm=  0.000000000000000    
_SL_GrdRMS=  0.000000000000000    
_SL_Hss_Q=  0.000000000000000    
_SL_Hss_X=  0.000000000000000    
_SL_BMxOld=  0.000000000000000    
_SL_KtB=  0.000000000000000    
_SL_TROld=  0.000000000000000    
_SL_No_of_Intern=  0.000000000000000    
_SL_Hess=  0.000000000000000    
_SL_K=  0.000000000000000    
!LATTICE= -1.000000000000000    
!NEWLATTICE=  0.000000000000000    
!LATGRAD_VAR=FALSE
!SEW_LATTICE=  1.000000000000000    
!AIC_ONEEL=  0.000000000000000    
!LOCAL=  0.000000000000000    
!SAVEDOM= -1.000000000000000    
!RESTDOM= -1.000000000000000    
!SAVEDOM_HF= -1.000000000000000    
!RESTDOM_HF= -1.000000000000000    
!HESSREC=  5300.200000000000    
!FREQREC=  5400.200000000000    
!NMODREC=  5450.200000000000    
!GTASKS=  0.000000000000000    
!HTASKS=  0.000000000000000    
!SAVEDOM_EOM= -1.000000000000000    
!RESTDOM_EOM= -1.000000000000000    
!GRADSTATE= -1.000000000000000    
!DEBUG=  0.000000000000000    
!CFIT_CPHF=  0.000000000000000    
!RDOMAUX_CPHF=  0.000000000000000    
!THRAO_CPHF= 0.1000000000000000E-11
!THRMO_CPHF= 0.1000000000000000E-11
!THROV_CPHF= 0.1000000000000000E-13
!THRSW_CPHF= 0.1000000000000000E-11
!THRPROD_CPHF= 0.1000000000000000E-11
!THRAOPR_CPHF= 0.1000000000000000E-11
!CFIT_SCFGRD=  0.000000000000000    
!RDOMAUX_SCFGRD=  0.000000000000000    
!THRAO_SCFGRD= 0.1000000000000000E-11
!THRMO_SCFGRD= 0.1000000000000000E-11
!THROV_SCFGRD= 0.1000000000000000E-13
!THRSW_SCFGRD= 0.1000000000000000E-11
!THRPROD_SCFGRD= 0.1000000000000000E-11
!THRAOPR_SCFGRD= 0.1000000000000000E-11
!LOCFIT_SCF=  0.000000000000000    
!LOCFIT_MP2=  0.000000000000000    
_RIDOM=  0.000000000000000    
!CC2_METHOD=  0.000000000000000    
_BASIS2006=FALSE
_SVDDEL= -1.000000000000000    
_SVDDELA= -1.000000000000000    
_SVDDELP= -1.000000000000000    
_SVDDELF= -1.000000000000000    
_SVDDELS= -1.000000000000000    
_SVDDEL_ABS= -1.000000000000000    
_SVDDELA_ABS= -1.000000000000000    
_SVDDELP_ABS= -1.000000000000000    
_SVDDELF_ABS= -1.000000000000000    
_SVDDELS_ABS= -1.000000000000000    
_MAXBASIS=  0.000000000000000    
!OPT_CONICAL=  0.000000000000000    
!CLEARSP_JGRID=  0.000000000000000    
_GRDHYBR=  0.000000000000000    
_STATEGRAD=  1.000000000000000    
_4EXT_NDISKS=  1.000000000000000    
!EMBEDFLAG=  1.000000000000000    
!EMBED=FALSE
!EMBED_F12=FALSE
!EMBEDNUC=  0.000000000000000    
_EMBEDENERGY=  0.000000000000000    
!EMBED_DFC=FALSE
!NUM_VOIDS=  0.000000000000000    
_IBODY=  0.000000000000000    
_EMBE_CORR=  0.000000000000000    
!EMBED_PROJ=FALSE
!EMB_PROJ_ZMU=  1000000.000000000    
!CORRECTION_HF=  0.000000000000000    
!EMBED_AORB=  0.000000000000000    
!EMBED_NACORR=  0.000000000000000    
!EMBED_MP2=FALSE
!EMBED_TRUNC_PERTURBATION=FALSE
!EMBED_FROZEN=  0.000000000000000    
!EMBED_ACTIVE=  0.000000000000000    
_CHANGE_BASIS=FALSE
_RESTORE_BASIS=FALSE
_FIX_EMBED_GUESS=FALSE
_EMBED_SCF=FALSE
_NEOBAS=FALSE
_NEOOVE=FALSE
_PRINEO=FALSE
_HUZINAGA_T=FALSE
_HUZINAGA_F=FALSE
_HUZINAGA=FALSE
_HUZINAGA_CORRECT=FALSE
!FASTLATGRAD=  1.000000000000000    
!FASTVLAMBDA= -1.000000000000000    
!IFORCE= -1.000000000000000    
!USESYM= -1.000000000000000    
_SINDEX=  0.000000000000000    
_AVDOM_OSV=  0.000000000000000    
_AVDOM_PNO=  0.000000000000000    
_AVDOM_PNOCC=  0.000000000000000    
_AVDOM_TNO=  0.000000000000000    
_AVDOM_TNOIT=  0.000000000000000    
_AVDOM_PAO=  0.000000000000000    
_AVDOM_LMO=  0.000000000000000    
_CC2OSV_FLAG=  0.000000000000000    
_EOMCCSD_CONV=FALSE
_TMADC2_FLAG=FALSE
_PROPADC2_FLAG=FALSE
_LEN_VirQ=  0.000000000000000    
_GRDCC2LR_FLAG=FALSE
_GRDADC2_FLAG=FALSE
_RO_VGLOBAL=  0.000000000000000    
_OPT=FALSE
_FREQ=FALSE
_HESS=FALSE
_CMRCC_callName=EMPTY
_CMRCC_callCount=  0.000000000000000    
_GECCO_CIROOT=  1.000000000000000    
_SYM_CATION=  2.000000000000000    
_MON_A=FALSE
_MON_B=FALSE
_MAXGEOM=  100.0000000000000    
!MAXGEOM=  100.0000000000000    
_NCORE=  0.000000000000000    
_NLARGECORE=  0.000000000000000    
GX1=  0.000000000000000    
GY1= 0.8341549787323909E-17
GZ1= 0.3239147665761882E-05
GX2=  0.000000000000000    
GY2= 0.8853065474438194    
GZ2= 0.6259798861584880    
GX3=  0.000000000000000    
GY3=-0.8853065474435059    
GZ3= 0.6259798861589315    
GX4=-0.8852587875011046    
GY4=-0.1567990831383132E-12
GZ4=-0.6259991701474920    
GX5= 0.8852587875011046    
GY5=-0.1567990831383132E-12
GZ5=-0.6259991701474920    
C1X1=  0.000000000000000    
C1Y1= 0.4787832186644545E-17
C1Z1= 0.6121101965510811E-05
H2X2=  0.000000000000000    
H2Y2=  1.672986911006829    
H2Z2=  1.182930544363960    
H3X3=  0.000000000000000    
H3Y3= -1.672986911006237    
H3Z3=  1.182930544364798    
H4X4= -1.672896657795371    
H4Y4=-0.2963182991362050E-12
H4Z4= -1.182966985821768    
H5X5=  1.672896657795371    
H5Y5=-0.2963182991362050E-12
H5Z5= -1.182966985821768    
[Atoms] Angs
C     1    6         0.0000000000        0.0000000000        0.0000032391
H     2    1         0.0000000000        0.8853065474        0.6259798862
H     3    1         0.0000000000       -0.8853065474        0.6259798862
H     4    1        -0.8852587875       -0.0000000000       -0.6259991701
H     5    1         0.8852587875       -0.0000000000       -0.6259991701
[GTO]
   1 0
 s    6  1.00
  0.4563240000D+04  0.1966650249D-02
  0.6820240000D+03  0.1523060193D-01
  0.1549730000D+03  0.7612690966D-01
  0.4445530000D+02  0.2608010331D+00
  0.1302900000D+02  0.6164620782D+00
  0.1827730000D+01  0.2210060280D+00
 s    3  1.00
  0.2096420000D+02  0.1146600807D+00
  0.4803310000D+01  0.9199996477D+00
  0.1459330000D+01 -0.3030682134D-02
 s    1  1.00
  0.4834560000D+00  0.1000000000D+01
 s    1  1.00
  0.1455850000D+00  0.1000000000D+01
 p    3  1.00
  0.2096420000D+02  0.4024869267D-01
  0.4803310000D+01  0.2375939567D+00
  0.1459330000D+01  0.8158538515D+00
 p    1  1.00
  0.4834560000D+00  0.1000000000D+01
 p    1  1.00
  0.1455850000D+00  0.1000000000D+01
 d    1  1.00
  0.6260000000D+00  0.1000000000D+01
  
   2 0
 s    3  1.00
  0.3386500000D+02  0.2549381454D-01
  0.5094790000D+01  0.1903731086D+00
  0.1158790000D+01  0.8521614860D+00
 s    1  1.00
  0.3258400000D+00  0.1000000000D+01
 s    1  1.00
  0.1027410000D+00  0.1000000000D+01
 p    1  1.00
  0.7500000000D+00  0.1000000000D+01
  
   3 0
 s    3  1.00
  0.3386500000D+02  0.2549381454D-01
  0.5094790000D+01  0.1903731086D+00
  0.1158790000D+01  0.8521614860D+00
 s    1  1.00
  0.3258400000D+00  0.1000000000D+01
 s    1  1.00
  0.1027410000D+00  0.1000000000D+01
 p    1  1.00
  0.7500000000D+00  0.1000000000D+01
  
   4 0
 s    3  1.00
  0.3386500000D+02  0.2549381454D-01
  0.5094790000D+01  0.1903731086D+00
  0.1158790000D+01  0.8521614860D+00
 s    1  1.00
  0.3258400000D+00  0.1000000000D+01
 s    1  1.00
  0.1027410000D+00  0.1000000000D+01
 p    1  1.00
  0.7500000000D+00  0.1000000000D+01
  
   5 0
 s    3  1.00
  0.3386500000D+02  0.2549381454D-01
  0.5094790000D+01  0.1903731086D+00
  0.1158790000D+01  0.8521614860D+00
 s    1  1.00
  0.3258400000D+00  0.1000000000D+01
 s    1  1.00
  0.1027410000D+00  0.1000000000D+01
 p    1  1.00
  0.7500000000D+00  0.1000000000D+01


[MO]
 Sym=      1.1
 Ene=     -11.2050
 Spin= Alpha
 Occup=    2.000000
1 0.56330992267222
2 0.46653430433563
3 0.004521726923248
4 -0.001090889686491
5 0.0
6 0.000000000024367
7 0.000000019448470
8 0.0
9 -0.000000000022815
10 -0.000000121451916
11 0.0
12 0.000000000004778
13 0.000000026602374
14 0.000000039450077
15 -0.000000039591857
16 0.000000000141780
17 0.0
18 0.0
19 -0.000000000006976
20 0.000374094028755
21 0.000061445925490
22 0.000217054542359
23 0.0
24 0.000005919249975
25 0.000004195920053
26 0.000374094026076
27 0.000061445909490
28 0.000217054551611
29 0.0
30 -0.000005919255557
31 0.000004195927605
32 0.000374106832421
33 0.000061362825435
34 0.000217101820214
35 -0.000005967011681
36 0.000000000000370
37 -0.000004208781966
38 0.000374106832421
39 0.000061362825435
40 0.000217101820214
41 0.000005967011681
42 0.000000000000370
43 -0.000004208781966
 Sym=      2.1
 Ene=      -0.9450
 Spin= Alpha
 Occup=    2.000000
1 -0.10299235544895
2 -0.16962059461144
3 0.42313908078800
4 0.26119962167563
5 0.0
6 -0.000000000143363
7 -0.000005866070974
8 0.0
9 -0.000000000217623
10 -0.000006596517612
11 0.0
12 -0.000000000067455
13 -0.000001408961529
14 0.000000145229032
15 -0.000000150415422
16 0.000000005186390
17 0.0
18 0.0
19 -0.000000000044848
20 0.083885312090130
21 0.11329314059809
22 0.007563499698743
23 0.0
24 -0.015915824476443
25 -0.011253888791811
26 0.083885312246151
27 0.11329314089859
28 0.007563499309005
29 0.0
30 0.015915824472595
31 -0.011253888847710
32 0.083891469440848
33 0.11329951914599
34 0.007564099318718
35 0.015916183504874
36 -0.000000000001287
37 0.011254746319778
38 0.083891469440848
39 0.11329951914599
40 0.007564099318718
41 -0.015916183504874
42 -0.000000000001287
43 0.011254746319778
 Sym=      3.1
 Ene=      -0.5461
 Spin= Alpha
 Occup=    2.000000
1 0.000000000355058
2 0.000000000621428
3 -0.000000001866753
4 -0.000000003160705
5 0.0
6 0.18957147870734
7 -0.000029972856079
8 0.0
9 0.29812977958488
10 -0.000047136559208
11 0.0
12 0.19523975538166
13 -0.000030869141204
14 0.000004501248650
15 -0.000004501398738
16 0.000000000150087
17 0.0
18 0.0
19 0.032874553504180
20 0.14152583345066
21 0.22219971629994
22 0.095859487417487
23 0.0
24 -0.008573171277105
25 -0.014011899434335
26 -0.14155748138849
27 -0.22224940522398
28 -0.095880919709508
29 0.0
30 -0.008577602154866
31 0.014011477873597
32 0.000015823927561
33 0.000024843880946
34 0.000010716564538
35 0.000002215368098
36 0.011241252280123
37 -0.000000210756577
38 0.000015823927561
39 0.000024843880946
40 0.000010716564538
41 -0.000002215368098
42 0.011241252280123
43 -0.000000210756577
 Sym=      4.1
 Ene=      -0.5461
 Spin= Alpha
 Occup=    2.000000
1 -0.000002156119484
2 -0.000003726224932
3 0.000010058980837
4 0.000015333206603
5 0.0
6 0.000029972362751
7 0.18957321662183
8 0.0
9 0.000047135952119
10 0.29813147657182
11 0.0
12 0.000030869060342
13 0.19524001359459
14 -0.028470131229338
15 0.028472438195835
16 -0.000002306966498
17 0.0
18 0.0
19 0.000005197594880
20 0.10010820603170
21 0.15717366648605
22 0.067807946875280
23 0.0
24 -0.014013543262869
25 0.001331040819624
26 0.10006344927406
27 0.15710339664589
28 0.067777635306559
29 0.0
30 0.014010831550305
31 0.001335471537799
32 -0.10008495997114
33 -0.15713429692957
34 -0.067789641353226
35 -0.014011812884524
36 0.000001777293217
37 0.001333300929180
38 -0.10008495997114
39 -0.15713429692957
40 -0.067789641353226
41 0.014011812884524
42 0.000001777293217
43 0.001333300929180
 Sym=      1.2
 Ene=      -0.5461
 Spin= Alpha
 Occup=    2.000000
1 0.0
2 0.0
3 0.0
4 0.0
5 0.18957496029197
6 0.0
7 0.0
8 0.29813318873484
9 0.0
10 0.0
11 0.19524034689265
12 0.0
13 0.0
14 0.0
15 0.0
16 0.0
17 -0.000000000124753
18 -0.032877075074518
19 0.0
20 0.0
21 0.0
22 0.0
23 0.011241269523904
24 0.0
25 0.0
26 0.0
27 0.0
28 0.0
29 0.011241269585629
30 0.0
31 0.0
32 -0.14154257845995
33 -0.22222435146428
34 -0.095872386387907
35 -0.008574006154657
36 0.000000000052566
37 -0.014012312861490
38 0.14154257845995
39 0.22222435146428
40 0.095872386387907
41 -0.008574006154657
42 -0.000000000052566
43 0.014012312861490
 Sym=      5.1
 Ene=       0.1623
 Spin= Alpha
 Occup=    0.000000
1 0.048565005732138
2 0.077897761794782
3 -0.063510321325136
4 -2.17082481628331
5 0.0
6 0.000000000178977
7 -0.000002045310604
8 0.0
9 -0.000000000070775
10 -0.000000764213381
11 0.0
12 0.000000001906956
13 0.000008601381188
14 -0.000000793129084
15 0.000000800530301
16 -0.000000007401217
17 0.0
18 0.0
19 -0.000000000106987
20 0.008328137915547
21 -0.006162229691812
22 0.78617919960146
23 0.0
24 -0.001806705502350
25 -0.001278397997281
26 0.008328138127121
27 -0.006162230959411
28 0.78617920885485
29 0.0
30 0.001806705331757
31 -0.001278397888463
32 0.008325118110042
33 -0.006158220810999
34 0.78617527521671
35 0.001808015858156
36 0.000000000003073
37 0.001277593887275
38 0.008325118110042
39 -0.006158220810999
40 0.78617527521671
41 -0.001808015858156
42 0.000000000003073
43 0.001277593887275
 Sym=      6.1
 Ene=       0.2375
 Spin= Alpha
 Occup=    0.000000
1 0.000000000053850
2 0.000000000038753
3 0.000000000999769
4 -0.000000010309655
5 0.0
6 -0.13721735870714
7 0.000014690720573
8 0.0
9 -0.060208209322709
10 0.000006445603689
11 0.0
12 -1.13557538719742
13 0.000121574184701
14 0.000003122328991
15 -0.000003122455582
16 0.000000000126591
17 0.0
18 0.0
19 0.033675027409853
20 0.014940383228007
21 -0.17481545750032
22 1.93751334069498
23 0.0
24 0.026211998023230
25 0.021236441098382
26 -0.014942645658067
27 0.17484192919984
28 -1.93780671350259
29 0.0
30 0.026216545834204
31 -0.021238838434847
32 0.000001130687527
33 -0.000013236239208
34 0.000146692585305
35 -0.000002273998756
36 -0.003822384827956
37 -0.000001198729626
38 0.000001130687527
39 -0.000013236239208
40 0.000146692585305
41 0.000002273998756
42 -0.003822384827956
43 -0.000001198729626
 Sym=      7.1
 Ene=       0.2375
 Spin= Alpha
 Occup=    0.000000
1 -0.000000812160637
2 -0.000001788262459
3 0.000012652743607
4 -0.000053200303828
5 0.0
6 0.000014690856869
7 0.13721703174438
8 0.0
9 0.000006446400403
10 0.060202795987092
11 0.0
12 0.000121575414358
13 1.13556856134478
14 0.029164550401926
15 -0.029165905195328
16 0.000001354793402
17 0.0
18 0.0
19 -0.000003605197910
20 -0.010569237293343
21 0.12364728441215
22 -1.37035410063805
23 0.0
24 -0.021242454937209
25 -0.011198208698056
26 -0.010566038430987
27 0.12360984937804
28 -1.36993920815575
29 0.0
30 0.021236841924218
31 -0.011193661221523
32 0.010562225355196
33 -0.12362897323891
34 1.37017053322713
35 -0.021240058381777
36 0.000000409240672
37 -0.011196667454507
38 0.010562225355196
39 -0.12362897323891
40 1.37017053322713
41 0.021240058381777
42 0.000000409240672
43 -0.011196667454507
 Sym=      2.2
 Ene=       0.2375
 Spin= Alpha
 Occup=    0.000000
1 0.0
2 0.0
3 0.0
4 0.0
5 0.13721671821940
6 0.0
7 0.0
8 0.060197463619916
9 0.0
10 0.0
11 1.13556167213044
12 0.0
13 0.0
14 0.0
15 0.0
16 0.0
17 0.000000000002298
18 0.033679213135569
19 0.0
20 0.0
21 0.0
22 0.0
23 0.003822713393995
24 0.0
25 0.0
26 0.0
27 0.0
28 0.0
29 0.003822713412903
30 0.0
31 0.0
32 0.014940670679701
33 -0.17484615477709
34 1.93773395347004
35 -0.026215999083766
36 -0.000000000000772
37 -0.021242074539716
38 -0.014940670679701
39 0.17484615477709
40 -1.93773395347004
41 -0.026215999083766
42 0.000000000000772
43 0.021242074539716
 Sym=      3.2
 Ene=       0.4277
 Spin= Alpha
 Occup=    0.000000
1 0.0
2 0.0
3 0.0
4 0.0
5 0.003965450279864
6 0.0
7 0.0
8 0.052212117735575
9 0.0
10 0.0
11 1.58146510780957
12 0.0
13 0.0
14 0.0
15 0.0
16 0.0
17 0.000000000051759
18 -0.042547905154468
19 0.0
20 0.0
21 0.0
22 0.0
23 0.005010713572478
24 0.0
25 0.0
26 0.0
27 0.0
28 0.0
29 0.005010713649511
30 0.0
31 0.0
32 0.053662513162581
33 1.14042541353827
34 -0.025342072901823
35 0.053381848610417
36 -0.000000000009146
37 0.034209632044421
38 -0.053662513162581
39 -1.14042541353827
40 0.025342072901823
41 0.053381848610417
42 0.000000000009146
43 -0.034209632044421
 Sym=      8.1
 Ene=       0.4277
 Spin= Alpha
 Occup=    0.000000
1 -0.000001889580284
2 -0.000002501871918
3 0.000003439457221
4 -0.000106737422241
5 0.0
6 -0.000000028440535
7 0.003966555450458
8 0.0
9 -0.000000372758806
10 0.052208227052965
11 0.0
12 -0.000011283113774
13 1.58148311102107
14 -0.036841479480306
15 0.036846698741438
16 -0.000005219261133
17 0.0
18 0.0
19 -0.000000303419618
20 -0.037947354533291
21 -0.80640040291528
22 0.017955425852022
23 0.0
24 0.034199901852981
25 0.029196633768583
26 -0.037948120206773
27 -0.80641667587607
28 0.017955787433632
29 0.0
30 -0.034200663495176
31 0.029197121701636
32 0.037939212052517
33 0.80640576383547
34 -0.017888040613284
35 0.034208855993079
36 -0.000000035779991
37 0.029197060435121
38 0.037939212052517
39 0.80640576383547
40 -0.017888040613284
41 -0.034208855993079
42 -0.000000035779991
43 0.029197060435121
 Sym=      9.1
 Ene=       0.4277
 Spin= Alpha
 Occup=    0.000000
1 0.000000000018255
2 0.000000000030195
3 0.000000000108657
4 -0.000000002799866
5 0.0
6 0.003967671309888
7 0.000000028303369
8 0.0
9 0.052204104208149
10 0.000000372553150
11 0.0
12 1.58149918933540
13 0.000011283201291
14 -0.000000262901619
15 0.000000262886864
16 0.000000000014754
17 0.0
18 0.0
19 0.042539805235315
20 -0.053658175609203
21 -1.14044366184570
22 0.025350066850937
23 0.0
24 0.053384801155429
25 0.034199696051974
26 0.053657634163204
27 1.14043215580673
28 -0.025349809839903
29 0.0
30 0.053384313054464
31 -0.034199279369282
32 0.000000270668196
33 0.000005753751796
34 -0.000000127345179
35 0.000000244102122
36 0.005010686611226
37 0.000000208328024
38 0.000000270668196
39 0.000005753751796
40 -0.000000127345179
41 -0.000000244102122
42 0.005010686611226
43 0.000000208328024
 Sym=     10.1
 Ene=       0.7591
 Spin= Alpha
 Occup=    0.000000
1 0.065438097417863
2 0.12630404553906
3 -0.37614963439978
4 -2.29461016259945
5 0.0
6 0.000000000295598
7 -0.000049521916610
8 0.0
9 0.000000001122390
10 -0.000167174897919
11 0.0
12 -0.000000002443509
13 0.000513321223450
14 -0.000017900125483
15 0.000017837742161
16 0.000000062383322
17 0.0
18 0.0
19 -0.000000000084610
20 0.047395568123548
21 1.22102051013845
22 -0.13550781111522
23 0.0
24 0.015810740261360
25 0.011169485284287
26 0.047395568180215
27 1.22102051080508
28 -0.13550781479585
29 0.0
30 -0.015810740567453
31 0.011169485521196
32 0.047377798516807
33 1.22101823381848
34 -0.13500972761911
35 -0.015777839712605
36 0.000000000024203
37 -0.011167169316925
38 0.047377798516807
39 1.22101823381848
40 -0.13500972761911
41 0.015777839712605
42 0.000000000024203
43 -0.011167169316925
 Sym=     11.1
 Ene=       0.8146
 Spin= Alpha
 Occup=    0.000000
1 0.000000000466540
2 0.000000000901368
3 -0.000000001755530
4 -0.000000024636508
5 0.0
6 -0.25408710792220
7 0.000009492959902
8 0.0
9 -1.04266612647676
10 0.000038955317851
11 0.0
12 1.68237020691533
13 -0.000062854695277
14 0.000002139244680
15 -0.000002139444505
16 0.000000000199825
17 0.0
18 0.0
19 0.066121882035991
20 0.050195297915428
21 0.48814425462338
22 -1.45854840524596
23 0.0
24 0.024234709438786
25 0.054261607406186
26 -0.050197949330208
27 -0.48817002468254
28 1.45862547148687
29 0.0
30 0.024238763852739
31 -0.054260551067367
32 0.000001326383148
33 0.000012908103994
34 -0.000038534437580
35 -0.000002027214419
36 -0.052504602435770
37 0.000000528066258
38 0.000001326383148
39 0.000012908103994
40 -0.000038534437580
41 0.000002027214419
42 -0.052504602435770
43 0.000000528066258
 Sym=     12.1
 Ene=       0.8146
 Spin= Alpha
 Occup=    0.000000
1 -0.000012485941730
2 -0.000024556441759
3 0.000079201511546
4 0.000435988780978
5 0.0
6 -0.000009493043670
7 -0.25408565778913
8 0.0
9 -0.000038955188988
10 -1.04267713080225
11 0.0
12 0.000062854801512
13 1.68235500367838
14 -0.057259417394095
15 0.057262233174867
16 -0.000002815780772
17 0.0
18 0.0
19 0.000002470336444
20 0.035488210414675
21 0.34496470805089
22 -1.03141465187799
23 0.0
24 0.054255402229124
25 -0.014136912086035
26 0.035484459710438
27 0.34492823220909
28 -1.03130566342813
29 0.0
30 -0.054253591349298
31 -0.014140966560170
32 -0.035501985688920
33 -0.34544533876079
34 1.03142546857646
35 0.054263735413572
36 -0.000001961640808
37 -0.014133917339504
38 -0.035501985688920
39 -0.34544533876079
40 1.03142546857646
41 -0.054263735413572
42 -0.000001961640808
43 -0.014133917339504
 Sym=      4.2
 Ene=       0.8146
 Spin= Alpha
 Occup=    0.000000
1 0.0
2 0.0
3 0.0
4 0.0
5 -0.25408419463287
6 0.0
7 0.0
8 -1.04268814149393
9 0.0
10 0.0
11 1.68233974898677
12 0.0
13 0.0
14 0.0
15 0.0
16 0.0
17 0.000000000031839
18 -0.066116335624753
19 0.0
20 0.0
21 0.0
22 0.0
23 -0.052502232560935
24 0.0
25 0.0
26 0.0
27 0.0
28 0.0
29 -0.052502232633788
30 0.0
31 0.0
32 -0.050196046523201
33 -0.48820426634939
34 1.45863264704334
35 0.024224338943073
36 -0.000000000034636
37 0.054257138661783
38 0.050196046523201
39 0.48820426634939
40 -1.45863264704334
41 0.024224338943073
42 0.000000000034636
43 -0.054257138661783
 Sym=     13.1
 Ene=       0.9354
 Spin= Alpha
 Occup=    0.000000
1 0.10376631806177
2 0.21895090163102
3 -1.91791740803772
4 5.71273848348427
5 0.0
6 -0.000000000279622
7 0.000003372296905
8 0.0
9 -0.000000001001948
10 -0.000041626417023
11 0.0
12 0.000000001785523
13 -0.000113635241852
14 0.000004875222563
15 -0.000004833725098
16 -0.000000041497466
17 0.0
18 0.0
19 0.000000000078688
20 0.014679255563079
21 -0.72546780307654
22 -0.74720494193188
23 0.0
24 0.12602386388121
25 0.089111151821024
26 0.014679255482812
27 -0.72546780359733
28 -0.74720493893455
29 0.0
30 -0.12602386384138
31 0.089111151709801
32 0.014678752426658
33 -0.72553845718642
34 -0.74726729651809
35 -0.12603462473021
36 -0.000000000033261
37 -0.089120925114875
38 0.014678752426658
39 -0.72553845718642
40 -0.74726729651809
41 0.12603462473021
42 -0.000000000033261
43 -0.089120925114875
 Sym=     14.1
 Ene=       1.2026
 Spin= Alpha
 Occup=    0.000000
1 0.000000021204403
2 0.000000055621511
3 -0.000000683208921
4 0.000002655838312
5 0.0
6 0.000000000064865
7 0.000000894549186
8 0.0
9 0.000000000236346
10 0.000042408661909
11 0.0
12 -0.000000000501516
13 -0.000009937389942
14 -0.23042795082369
15 -0.23037964468657
16 0.46080759551026
17 0.0
18 0.0
19 0.000000000054006
20 0.000003754031038
21 -0.000016921428809
22 0.000011448425470
23 0.0
24 -0.17822529159094
25 0.25207390317650
26 0.000003753963058
27 -0.000016921421369
28 0.000011447487622
29 0.0
30 0.17822529167711
31 0.25207390346995
32 -0.000003828794058
33 0.000015790013367
34 -0.000011919593152
35 0.17826843215942
36 0.000000000009200
37 -0.25208422370605
38 -0.000003828794058
39 0.000015790013367
40 -0.000011919593152
41 -0.17826843215942
42 0.000000000009200
43 -0.25208422370605
 Sym=      5.2
 Ene=       1.2026
 Spin= Alpha
 Occup=    0.000000
1 0.0
2 0.0
3 0.0
4 0.0
5 0.000000000057954
6 0.0
7 0.0
8 0.000000000244666
9 0.0
10 0.0
11 0.000000000028137
12 0.0
13 0.0
14 0.0
15 0.0
16 0.0
17 0.46080769336814
18 -0.000000000088181
19 0.0
20 0.0
21 0.0
22 0.0
23 0.30874028241382
24 0.0
25 0.0
26 0.0
27 0.0
28 0.0
29 -0.30874028264765
30 0.0
31 0.0
32 -0.000000000046777
33 0.000000000168134
34 -0.000000000146197
35 0.000000000017137
36 -0.30872481378248
37 -0.000000000015511
38 0.000000000046777
39 -0.000000000168134
40 0.000000000146197
41 0.000000000017137
42 0.30872481378248
43 0.000000000015511
 Sym=     15.1
 Ene=       1.7213
 Spin= Alpha
 Occup=    0.000000
1 -0.000000000030085
2 -0.000000000069537
3 0.000000000313246
4 0.000000001215018
5 0.0
6 0.058221275871885
7 -0.000000372838267
8 0.0
9 0.20656065335907
10 -0.000001323296384
11 0.0
12 0.99891002441466
13 -0.000006397926355
14 0.000004752423780
15 -0.000004752692376
16 0.000000000268597
17 0.0
18 0.0
19 0.85674238740727
20 0.28056013933702
21 -1.27523683345913
22 0.15198353521136
23 0.0
24 -0.13465024880973
25 0.10434711958181
26 -0.28056268124099
27 1.27524838491608
28 -0.15198491253833
29 0.0
30 -0.13464892325886
31 -0.10434446516662
32 0.000001270697164
33 -0.000005776281578
34 0.000000688386276
35 -0.000000662932704
36 -0.27978281176733
37 0.000001326952038
38 0.000001270697164