
 Working directory              : /tmp/lme/molpro.S2TYeCPmzC/
 Global scratch directory       : /tmp/lme/molpro.S2TYeCPmzC/
 Wavefunction directory         : /home/lme/wfu/
 Main file repository           : /tmp/lme/molpro.S2TYeCPmzC/

 id        : liedlgroup

 Nodes     nprocs
 sv1-c724     1
 GA implementation: MPI file
 GA implementation (serial work in mppx): MPI file

 Using customized tuning parameters: mindgm=1; mindgv=20; mindgc=4; mindgr=1; noblas=0; minvec=7
 default implementation of scratch files=df  


 Variables initialized (1042), CPU time= 0.00 sec
 
                   orient,mass
                   geometry=/home/lme/Theoretische_Chemie/Nomodeco/deuterium_calculations/ch4/ch4.xyz
 Including file /home/lme/Theoretische_Chemie/Nomodeco/deuterium_calculations/ch4/ch4.xyz
                   mass, iso
                   basis=6-311g(d,p)
                   {hf
                   start, atden}
                   optg;
                   {frequencies, symm=auto, print=0, analytical}
                   put, molden, ch4.molden
 Commands initialized (847), CPU time= 0.01 sec, 718 directives.
 Default parameters read. Elapsed time= 0.06 sec

 Checking input...
 Passed
1


                                         ***  PROGRAM SYSTEM MOLPRO  ***
                                       Copyright, TTI GmbH Stuttgart, 2015
                                    Version 2024.1 linked Wed Jan 31 11:42:09 2024


 **********************************************************************************************************************************
 LABEL *                                                                                                                                                                 
  (6 PROC) 64 bit serial version                                                         DATE: 22-Sep-24          TIME: 20:17:47  
 **********************************************************************************************************************************

 SHA1:             675817fde4514a4a933b69e420913a90cee4ef91
 **********************************************************************************************************************************

 Memory per process:        32 MW
 Total memory per node:     32 MW

 GA preallocation disabled
 GA check disabled

 Variable memory set to 32.0 MW

 ZCENTRE=MASS


 Geometry recognized as XYZ



 Using masses of most abundant isotopes

 **********************************************************************************************************************************
 SETTING BASIS          =    6-311G(D,P)


 Recomputing integrals since basis changed


 Using spherical harmonics

 Library entry C      S 6-311G               selected for orbital group  1
 Library entry C      P 6-311G               selected for orbital group  1
 Library entry C      D 6-311G*              selected for orbital group  1
 Library entry H      S 6-311G               selected for orbital group  2
 Library entry H      P 6-311G**             selected for orbital group  2


 PROGRAM * SEWARD (Integral evaluation for generally contracted gaussian basis sets)     Author: Roland Lindh, 1990

 Geometry written to block  1 of record 700

 Orientation using atomic masses  
 Molecule type: Asymmetric top
 Symmetry elements: X
 Rotational constants:     158.5649397    158.5657915    158.5659388 GHz

 Point group  Cs  



 ATOMIC COORDINATES

 NR  ATOM    CHARGE       X              Y              Z

   1  C1      6.00    0.000000000    0.000000000    0.000000000
   2  H2      1.00    0.000000000    2.057911750    0.000000000
   3  H3      1.00    0.000000000   -0.685970583    1.940219607
   4  H4      1.00   -1.680268881   -0.685970583   -0.970109803
   5  H5      1.00    1.680268881   -0.685970583   -0.970109803

 Bond lengths in Bohr (Angstrom)

 1-2  2.057911750  1-3  2.057913449  1-4  2.057904804  1-5  2.057904804
     ( 1.089000000)     ( 1.089000899)     ( 1.088996325)     ( 1.088996325)

 Bond angles

  2-1-3  109.47120391   2-1-4  109.47128900   2-1-5  109.47128900   3-1-4  109.47132245

  3-1-5  109.47132245   4-1-5  109.47089699

 NUCLEAR CHARGE:                   10
 NUMBER OF PRIMITIVE AOS:          64
 NUMBER OF SYMMETRY AOS:           63
 NUMBER OF CONTRACTIONS:           42   (   29A'  +   13A"  )
 NUMBER OF INNER CORE ORBITALS:     0   (    0A'  +    0A"  )
 NUMBER OF OUTER CORE ORBITALS:     1   (    1A'  +    0A"  )
 NUMBER OF VALENCE ORBITALS:        8   (    6A'  +    2A"  )


 NUCLEAR REPULSION ENERGY   13.44774653

 Eigenvalues of metric

         1 0.127E-01 0.233E-01 0.233E-01 0.547E-01 0.547E-01 0.551E-01 0.117E+00 0.120E+00
         2 0.233E-01 0.547E-01 0.120E+00 0.333E+00 0.347E+00 0.487E+00 0.678E+00 0.924E+00


 Contracted 2-electron integrals neglected if value below      1.0D-11
 AO integral compression algorithm  1   Integral accuracy      1.0D-11

     1.573 MB (compressed) written to integral file ( 63.7%)


 NUMBER OF SORTED TWO-ELECTRON INTEGRALS:     217771.     BUFFER LENGTH:  32768
 NUMBER OF SEGMENTS:   1  SEGMENT LENGTH:     217771      RECORD LENGTH: 524288

 Memory used in sort:       0.77 MW

 SORT1 READ      285300. AND WROTE      200271. INTEGRALS IN      1 RECORDS. CPU TIME:     0.00 SEC, REAL TIME:     0.01 SEC
 SORT2 READ      200271. AND WROTE      217771. INTEGRALS IN      6 RECORDS. CPU TIME:     0.01 SEC, REAL TIME:     0.01 SEC

 FILE SIZES:   FILE 1:    31.7 MBYTE,  FILE 4:     4.3 MBYTE,   TOTAL:     35.9 MBYTE

 OPERATOR DM      FOR CENTER  0  COORDINATES:    0.000000    0.000000    0.000000


 **********************************************************************************************************************************
 DATASETS  * FILE   NREC   LENGTH (MB)   RECORD NAMES
              1      19       29.69       500      610      700      900      950      970     1000      129      960     1100   
                                          VAR    BASINP    GEOM    SYMINP    ZMAT    AOBASIS   BASIS     P2S    ABASIS      S 
                                         1400     1410     1200     1210     1080     1600     1650     1300     1700   
                                           T        V       H0       H01     AOSYM     SMH    MOLCAS    ERIS     OPER   

 PROGRAMS   *        TOTAL       INT
 CPU TIMES  *         0.24      0.14
 REAL TIME  *         0.30 SEC
 DISK USED  *        34.65 MB
 **********************************************************************************************************************************


 Program * Restricted Hartree-Fock

 Orbital guess generated from atomic densities.

 Initial occupancy:   4   1

 NELEC=   10   SYM=1   MS2= 0   THRE=1.0D-08   THRD=1.0D-06   THRG=1.0D-06  HFMA2=F  DIIS_START=2   DIIS_MAX=10   DIIS_INCORE=F

 Level shifts:    0.00 (CLOSED)    0.00 (OPEN)    0.30 (GAP_MIN)

 ITER           ETOT              DE          GRAD        DDIFF     DIIS  NEXP   TIME(IT)  TIME(TOT)  DIAG
   1      -40.19058090     -40.19058090     0.00D+00     0.62D-01     0     0       0.01      0.01    start
   2      -40.20658203      -0.01600114     0.11D-01     0.60D-02     1     0       0.00      0.01    diag
   3      -40.20865598      -0.00207395     0.41D-02     0.23D-02     2     0       0.00      0.01    diag
   4      -40.20894664      -0.00029066     0.10D-02     0.13D-02     3     0       0.00      0.01    diag
   5      -40.20895110      -0.00000446     0.13D-03     0.25D-03     4     0       0.00      0.01    diag
   6      -40.20895112      -0.00000002     0.91D-05     0.24D-04     5     0       0.00      0.01    diag
   7      -40.20895112      -0.00000000     0.62D-06     0.14D-05     6     0       0.00      0.01    diag
   8      -40.20895112      -0.00000000     0.53D-07     0.62D-07     7     0       0.01      0.02    fixocc
   9      -40.20895112      -0.00000000     0.33D-08     0.47D-08     0     0       0.00      0.02    diag

 Final occupancy:   4   1

 !RHF STATE 1.1 Energy                -40.208951123054
  RHF One-electron energy             -79.743383708335
  RHF Two-electron energy              26.086686050500
  RHF Kinetic energy                   40.160221468872
  RHF Nuclear energy                   13.447746534781
  RHF Virial quotient                  -1.001213381112

 !RHF STATE 1.1 Dipole moment           0.00000000    -0.00000102    -0.00000204
 Dipole moment /Debye                   0.00000000    -0.00000258    -0.00000518

 Orbital energies:

           1.1          2.1          3.1          4.1          5.1          6.1
    -11.207360    -0.943047    -0.544867    -0.544866     0.161791     0.237111

           1.2          2.2          3.2
     -0.544866     0.237111     0.427191


 HOMO      4.1    -0.544866 =     -14.8265eV
 LUMO      5.1     0.161791 =       4.4026eV
 LUMO-HOMO         0.706656 =      19.2291eV

 Orbitals saved in record  2100.2


 **********************************************************************************************************************************
 DATASETS  * FILE   NREC   LENGTH (MB)   RECORD NAMES
              1      19       29.69       500      610      700      900      950      970     1000      129      960     1100   
                                          VAR    BASINP    GEOM    SYMINP    ZMAT    AOBASIS   BASIS     P2S    ABASIS      S 
                                         1400     1410     1200     1210     1080     1600     1650     1300     1700   
                                           T        V       H0       H01     AOSYM     SMH    MOLCAS    ERIS     OPER   

              2       4        0.46       700     1000      520     2100   
                                         GEOM     BASIS   MCVARS     RHF  

 PROGRAMS   *        TOTAL    HF-SCF       INT
 CPU TIMES  *         0.26      0.02      0.14
 REAL TIME  *         0.32 SEC
 DISK USED  *        34.65 MB
 **********************************************************************************************************************************


 PROGRAM * OPT (Geometry optimization)     Authors: F. Eckert and H.-J. Werner


 BFGS update of hessian

 *** Long output written to logfile /home/lme/Theoretische_Chemie/Nomodeco/deuterium_calculations/ch4/ch4.molpro/run/ch4_1.molpro/ch4_1.log ***


 Geometry optimization using default procedure for command HF-SCF

 Geometry written to block  1 of record 700

 PQS Optimization using delocalized internal coordinates

 Point group c2v. Number of degrees of freedom:    4

 ITER.   ENERGY(OLD)    ENERGY(NEW)      DE          GRADMAX     GRADNORM    GRADRMS     STEPMAX     STEPLEN     STEPRMS   CPU-time
   1   -40.20895112   -40.20901140    -0.00006028  0.00671653  0.00671653  0.00335826  0.01922217  0.01922217  0.00961109      0.15
   2   -40.20901140   -40.20901170    -0.00000030  0.00047704  0.00047704  0.00027542  0.00127472  0.00127472  0.00073596      0.31
   3   -40.20901170   -40.20901170     0.00000000  0.00000603  0.00000625  0.00000361  0.00001588  0.00001689  0.00000975      0.46

 END OF GEOMETRY OPTIMIZATION.

 Geometry written to block  1 of record 700

 Recomputing wavefunction for reoriented structure

 Current geometry (xyz format, in Angstrom)

    5
 HF-SCF000/6-311G(D,P)  ENERGY=-40.20901170
 C          0.0000000000        0.0000000000        0.0000032391
 H          0.0000000000        0.8853065474        0.6259798862
 H          0.0000000000       -0.8853065474        0.6259798862
 H         -0.8852587875       -0.0000000000       -0.6259991701
 H          0.8852587875       -0.0000000000       -0.6259991701

 **********************************************************************************************************************************


 **********************************************************************************************************************************
 DATASETS  * FILE   NREC   LENGTH (MB)   RECORD NAMES
              1      19       29.64       500      610      700      900      950      970     1000      129      960     1100   
                                          VAR    BASINP    GEOM    SYMINP    ZMAT    AOBASIS   BASIS     P2S    ABASIS      S 
                                         1400     1410     1200     1210     1080     1600     1650     1300     1700   
                                           T        V       H0       H01     AOSYM     SMH    MOLCAS    ERIS     OPER   

              2       4        0.46       700     1000      520     2100   
                                         GEOM     BASIS   MCVARS     RHF  

 PROGRAMS   *        TOTAL      OPTG    HF-SCF       INT
 CPU TIMES  *         0.82      0.55      0.02      0.14
 REAL TIME  *         1.01 SEC
 DISK USED  *        35.04 MB
 **********************************************************************************************************************************


 PROGRAM * HESSIAN

 PROGRAM * MCKINLEY (Hessian of the energy)     Author: A. Bernhardsson, R. Lindh

 Orbitals from record         2100.2

 Number of closed-shell orbitals:  5 (  4  1 )
 Number of occupied orbitals:      5 (  4  1 )

 Number of electrons= 10     Singlet     Space symmetry=1      Wavefunction type: CLOSED          


 McKinley needed      0.47 seconds of CPU time

 Entering CPHF calculation

 CPHF needed  95 iterations for 15 perturbations.  Total CPU time:    0.12 sec


 HF-SCF hessian saved to record  5300.2

 PROGRAM * FREQUENCIES (Calculation of harmonic vibrational spectra for HF-SCF)


 Permanent Dipole Moment [debye]
     1-   3    0.000000    0.000000    0.000000

 Dipole Moment Norm    0.0000000 [debye]

 Dipole Moment Derivatives [debye/ang]
              1             2             3             4             5             6             7             8
    1    0.00000000    0.00000000    0.00000000    0.00000000    0.00000000    0.00000000    0.00000000    0.00000000
    2    0.00000000    0.00000000    0.00000000    0.00000000    0.00000000    0.00000000    0.00000000    0.00000000
    3    0.00000000    0.00000000    0.00000000    0.00000000    0.00000000    0.00000000    0.00000000    0.00000000
              9            10            11            12            13            14            15
    1    0.00000000    0.00000000    0.00000000    0.00000000    0.00000000    0.00000000    0.00000000
    2    0.00000000    0.00000000    0.00000000    0.00000000    0.00000000    0.00000000    0.00000000
    3    0.00000000    0.00000000    0.00000000    0.00000000    0.00000000    0.00000000    0.00000000

 Projecting out rotations and translations

 Force Constants (Second Derivatives of the Energy) in [a.u.]
                             C1X1        C1Y1        C1Z1        H2X2        H2Y2    
           C1X1          0.5993499
           C1Y1          0.0000000   0.5993011
           C1Z1         -0.0000000  -0.0000000   0.5993257
           H2X2         -0.0543431  -0.0000000   0.0000000   0.0517591
           H2Y2         -0.0000000  -0.2453104  -0.1350284  -0.0000000   0.2637162
           H2Z2          0.0000000  -0.1350284  -0.1498206  -0.0000000   0.1498699
           H3X3         -0.0543431  -0.0000000   0.0000000  -0.0012792   0.0000000
           H3Y3         -0.0000000  -0.2453104   0.1350284  -0.0000000  -0.0222658
           H3Z3         -0.0000000   0.1350284  -0.1498206  -0.0000000  -0.0181236
           H4X4         -0.2453318  -0.0000000  -0.1350574   0.0019316  -0.0008899
           H4Y4         -0.0000000  -0.0543401  -0.0000000  -0.0265206   0.0019301
           H4Z4         -0.1350574  -0.0000000  -0.1498422  -0.0164815   0.0016411
           H5X5         -0.2453318   0.0000000   0.1350574   0.0019316   0.0008899
           H5Y5          0.0000000  -0.0543401  -0.0000000   0.0265206   0.0019301
           H5Z5          0.1350574  -0.0000000  -0.1498422   0.0164815   0.0016411
                             H2Z2        H3X3        H3Y3        H3Z3        H4X4    
           H2Z2          0.1577315
           H3X3         -0.0000000   0.0517591
           H3Y3          0.0181236   0.0000000   0.2637161
           H3Z3          0.0156380   0.0000000  -0.1498699   0.1577315
           H4X4          0.0016421   0.0019316   0.0008899   0.0016421   0.2637392
           H4Y4         -0.0164826   0.0265206   0.0019301   0.0164826   0.0000000
           H4Z4         -0.0117744  -0.0164815  -0.0016411  -0.0117744   0.1498968
           H5X5         -0.0016421   0.0019316  -0.0008899  -0.0016421  -0.0222706
           H5Y5         -0.0164826  -0.0265206   0.0019301   0.0164826  -0.0000000
           H5Z5         -0.0117744   0.0164815  -0.0016411  -0.0117744  -0.0181237
                             H4Y4        H4Z4        H5X5        H5Y5        H5Z5    
           H4Y4          0.0517620
           H4Z4          0.0000000   0.1577569
           H5X5          0.0000000   0.0181237   0.2637392
           H5Y5         -0.0012820   0.0000000  -0.0000000   0.0517620
           H5Z5          0.0000000   0.0156342  -0.1498968   0.0000000   0.1577569


 Atomic Masses
     1-   5   12.000000    1.007825    1.007825    1.007825    1.007825

 Mass weighted Second Derivative Matrix
                             C1X1        C1Y1        C1Z1        H2X2        H2Y2    
           C1X1          0.0499458
           C1Y1          0.0000000   0.0499418
           C1Z1         -0.0000000  -0.0000000   0.0499438
           H2X2         -0.0156265  -0.0000000   0.0000000   0.0513573
           H2Y2         -0.0000000  -0.0705396  -0.0388277  -0.0000000   0.2616686
           H2Z2          0.0000000  -0.0388277  -0.0430813  -0.0000000   0.1487063
           H3X3         -0.0156265  -0.0000000   0.0000000  -0.0012693   0.0000000
           H3Y3         -0.0000000  -0.0705396   0.0388277  -0.0000000  -0.0220930
           H3Z3         -0.0000000   0.0388277  -0.0430813  -0.0000000  -0.0179829
           H4X4         -0.0705457  -0.0000000  -0.0388361   0.0019166  -0.0008830
           H4Y4         -0.0000000  -0.0156256  -0.0000000  -0.0263147   0.0019151
           H4Z4         -0.0388361  -0.0000000  -0.0430875  -0.0163536   0.0016283
           H5X5         -0.0705457   0.0000000   0.0388361   0.0019166   0.0008830
           H5Y5          0.0000000  -0.0156256  -0.0000000   0.0263147   0.0019151
           H5Z5          0.0388361  -0.0000000  -0.0430875   0.0163536   0.0016283
                             H2Z2        H3X3        H3Y3        H3Z3        H4X4    
           H2Z2          0.1565068
           H3X3         -0.0000000   0.0513573
           H3Y3          0.0179829   0.0000000   0.2616686
           H3Z3          0.0155166   0.0000000  -0.1487063   0.1565068
           H4X4          0.0016294   0.0019166   0.0008830   0.0016294   0.2616914
           H4Y4         -0.0163546   0.0263147   0.0019151   0.0163546   0.0000000
           H4Z4         -0.0116830  -0.0163536  -0.0016283  -0.0116830   0.1487330
           H5X5         -0.0016294   0.0019166  -0.0008830  -0.0016294  -0.0220977
           H5Y5         -0.0163546  -0.0263147   0.0019151   0.0163546  -0.0000000
           H5Z5         -0.0116830   0.0163536  -0.0016283  -0.0116830  -0.0179830
                             H4Y4        H4Z4        H5X5        H5Y5        H5Z5    
           H4Y4          0.0513601
           H4Z4          0.0000000   0.1565320
           H5X5          0.0000000   0.0179830   0.2616914
           H5Y5         -0.0012721   0.0000000  -0.0000000   0.0513601
           H5Z5          0.0000000   0.0155128  -0.1487330   0.0000000   0.1565320


 Mass Weighted 2nd Derivative Matrix Eigenvalues
     1-  10    0.000000    0.000000    0.000000    0.000000    0.000000    0.000000    0.079921    0.079921    0.079921    0.105259
    11-  15    0.105259    0.375683    0.400675    0.400701    0.400726

 Mass Weighted 2nd Derivative Matrix Eigenvectors
              1             2             3             4             5             6             7             8
    1    0.22445991   -0.02128324   -0.06472676   -0.02290361    0.01431797    0.83233486   -0.39802202    0.00000000
    2    0.75763212    0.23750411    0.27800828   -0.09288940   -0.01350727   -0.17894566    0.00000000   -0.00025513
    3   -0.20346328    0.53553774    0.07838313   -0.25223708    0.58928322    0.05758059    0.00000000    0.39802056
    4    0.02485650    0.27441077    0.05212492    0.52745247   -0.04935788    0.28035815    0.55841631    0.00000000
    5    0.19826743    0.27048680   -0.08066018   -0.13455256   -0.21907066   -0.05275788    0.00000000    0.30420655
    6   -0.02884541   -0.13000022    0.25073673    0.07912434    0.47506692    0.01795843    0.00000000   -0.34354135
    7   -0.10649513   -0.05643352    0.42721421   -0.31306051   -0.20719624    0.31607597    0.55841630    0.00000000
    8    0.19826743    0.27048680   -0.08066018   -0.13455256   -0.21907066   -0.05275788    0.00000000   -0.30404207
    9   -0.08908288    0.44040044   -0.20530549   -0.22532215   -0.13351557    0.01541556    0.00000000   -0.34315143
   10    0.17092170   -0.12132923   -0.27719613   -0.12047571    0.13658127    0.18420583    0.12829654    0.30415865
   11    0.30653289    0.03257663    0.05426721    0.50095168    0.29016556   -0.06881779    0.00000000    0.00035795
   12   -0.20868357    0.31805499    0.38818491    0.08788491   -0.01650235    0.09730291   -0.30413889   -0.34336393
   13    0.17092170   -0.12132923   -0.27719613   -0.12047571    0.13658127    0.18420583    0.12829654   -0.30415865
   14    0.17518835   -0.29824981    0.42933627   -0.33951596    0.13233572   -0.03310189    0.00000000    0.00035795
   15    0.09075529   -0.00765477   -0.34275367   -0.23408272    0.35805370   -0.06392893    0.30413889   -0.34336393
              9            10            11            12            13            14            15
    1    0.00000000    0.00000000    0.00000000    0.00000000    0.00000000    0.00000000   -0.30502916
    2   -0.39801925    0.00000000    0.00000000    0.00000000   -0.30503268    0.00000049    0.00000000
    3   -0.00025514    0.00000000   -0.00001560   -0.00032385   -0.00000049   -0.30503079    0.00000000
    4    0.00000000    0.49998651    0.00000000    0.00000000    0.00000000    0.00000000   -0.01748141
    5    0.12809802    0.00000000   -0.28868293    0.40868411    0.54376715    0.39641789    0.00000000
    6   -0.30392404    0.00000000    0.40826173    0.28895435    0.39685006    0.26282034    0.00000000
    7    0.00000000   -0.49998651    0.00000000    0.00000000    0.00000000    0.00000000   -0.01748141
    8    0.12848791    0.00000000    0.28868293   -0.40868411    0.54376587   -0.39641964    0.00000000
    9    0.30436421    0.00000000    0.40826173    0.28895435   -0.39684921    0.26282162    0.00000000
   10   -0.00019497    0.00000000    0.28866738   -0.40781197    0.00000064    0.39730091    0.54375239
   11    0.55841508   -0.50001349    0.00000000    0.00000000   -0.01748945    0.00000003    0.00000000
   12    0.00022010    0.00000000   -0.40823482   -0.28839561    0.00000043    0.26345282    0.39687068
   13    0.00019497    0.00000000   -0.28866738    0.40781197   -0.00000064   -0.39730091    0.54375239
   14    0.55841508    0.50001349    0.00000000    0.00000000   -0.01748945    0.00000003    0.00000000
   15    0.00022010    0.00000000   -0.40823482   -0.28839561    0.00000043    0.26345282   -0.39687068

   Low Vibration      Wavenumber
        Nr             [1/cm] 
        1                0.00
        2                0.00
        3                0.00
        4                0.00
        5                0.00
        6                0.00

     Vibration        Wavenumber
        Nr             [1/cm] 
        1             1453.23
        2             1453.23
        3             1453.23
        4             1667.76
        5             1667.76
        6             3150.76
        7             3253.87
        8             3253.98
        9             3254.08

 FREQUENCIES * CALCULATION OF NORMAL MODES FOR HF-SCF


 Atomic Coordinates

  Nr  Atom  Charge       X              Y              Z

   1   C1    6.00    0.000000000    0.000000000    0.000006121
   2   H2    1.00    0.000000000    1.672986911    1.182930544
   3   H3    1.00    0.000000000   -1.672986911    1.182930544
   4   H4    1.00   -1.672896658   -0.000000000   -1.182966986
   5   H5    1.00    1.672896658   -0.000000000   -1.182966986

 Gradient norm at reference geometry: 0.63285D-05

 Normal Modes

                              1 B2        2 A1        3 B1        4 A2        5 A1 
 Wavenumbers [cm-1]         1453.23     1453.23     1453.23     1667.76     1667.76
 Intensities [km/mol]          0.00        0.00        0.00        0.00        0.00
 Intensities [relative]        0.00        0.00        0.00        0.00        0.00
           C1X1            -0.11490    -0.00000     0.00000     0.00000    -0.00000
           C1Y1            -0.00000    -0.00007    -0.11490     0.00000    -0.00000
           C1Z1            -0.00000     0.11490    -0.00007    -0.00000    -0.00000
           H2X2             0.55624     0.00000    -0.00000     0.49804    -0.00000
           H2Y2            -0.00000     0.30302     0.12760    -0.00000    -0.28756
           H2Z2             0.00000    -0.34221    -0.30274     0.00000     0.40667
           H3X3             0.55624     0.00000    -0.00000    -0.49804     0.00000
           H3Y3             0.00000    -0.30286     0.12799     0.00000     0.28756
           H3Z3             0.00000    -0.34182     0.30318     0.00000     0.40667
           H4X4             0.12780     0.30298    -0.00019    -0.00000     0.28754
           H4Y4            -0.00000     0.00036     0.55624    -0.49807     0.00000
           H4Z4            -0.30296    -0.34203     0.00022     0.00000    -0.40665
           H5X5             0.12780    -0.30298     0.00019    -0.00000    -0.28754
           H5Y5             0.00000     0.00036     0.55624     0.49807     0.00000
           H5Z5             0.30296    -0.34203     0.00022    -0.00000    -0.40665

                              6 A1        7 B1        8 A1        9 B2 
 Wavenumbers [cm-1]         3150.76     3253.87     3253.98     3254.08
 Intensities [km/mol]          0.00        0.00        0.00        0.00
 Intensities [relative]        0.00        0.00        0.00        0.00
           C1X1            -0.00000     0.00000     0.00000    -0.08805
           C1Y1            -0.00000    -0.08806     0.00000    -0.00000
           C1Z1            -0.00009    -0.00000    -0.08805    -0.00000
           H2X2             0.00000    -0.00000    -0.00000    -0.01741
           H2Y2             0.40709     0.54165     0.39488     0.00000
           H2Z2             0.28783     0.39531     0.26180     0.00000
           H3X3             0.00000     0.00000    -0.00000    -0.01741
           H3Y3            -0.40709     0.54165    -0.39488     0.00000
           H3Z3             0.28783    -0.39531     0.26180    -0.00000
           H4X4            -0.40623     0.00000     0.39576     0.54164
           H4Y4            -0.00000    -0.01742     0.00000     0.00000
           H4Z4            -0.28727     0.00000     0.26243     0.39533
           H5X5             0.40623    -0.00000    -0.39576     0.54164
           H5Y5            -0.00000    -0.01742     0.00000    -0.00000
           H5Z5            -0.28727     0.00000     0.26243    -0.39533


 Normal Modes of low/zero frequencies

                                  1           2           3           4           5
 Wavenumbers [cm-1]            0.00        0.00        0.00        0.00        0.00
 Intensities [km/mol]          0.00        0.00        0.00        0.00        0.00
 Intensities [relative]        0.00        0.00        0.00        0.00        0.00
           C1X1             0.06480    -0.00614    -0.01869    -0.00661     0.00413
           C1Y1             0.21871     0.06856     0.08025    -0.02681    -0.00390
           C1Z1            -0.05873     0.15460     0.02263    -0.07281     0.17011
           H2X2             0.02476     0.27334     0.05192     0.52540    -0.04917
           H2Y2             0.19750     0.26943    -0.08035    -0.13403    -0.21822
           H2Z2            -0.02873    -0.12949     0.24976     0.07882     0.47322
           H3X3            -0.10608    -0.05621     0.42555    -0.31184    -0.20639
           H3Y3             0.19750     0.26943    -0.08035    -0.13403    -0.21822
           H3Z3            -0.08874     0.43869    -0.20451    -0.22445    -0.13300
           H4X4             0.17026    -0.12086    -0.27612    -0.12001     0.13605
           H4Y4             0.30534     0.03245     0.05406     0.49900     0.28904
           H4Z4            -0.20787     0.31682     0.38667     0.08754    -0.01644
           H5X5             0.17026    -0.12086    -0.27612    -0.12001     0.13605
           H5Y5             0.17451    -0.29709     0.42767    -0.33820     0.13182
           H5Z5             0.09040    -0.00762    -0.34142    -0.23317     0.35666

                                  6
 Wavenumbers [cm-1]            0.00
 Intensities [km/mol]          0.00
 Intensities [relative]        0.00
           C1X1             0.24027
           C1Y1            -0.05166
           C1Z1             0.01662
           H2X2             0.27927
           H2Y2            -0.05255
           H2Z2             0.01789
           H3X3             0.31485
           H3Y3            -0.05255
           H3Z3             0.01536
           H4X4             0.18349
           H4Y4            -0.06855
           H4Z4             0.09692
           H5X5             0.18349
           H5Y5            -0.03297
           H5Z5            -0.06368


 Frequencies dumped to record   5400.2
 Frequency information read from record  5400.2

 Zero point energy:  0.04694821 [H]    10303.94 [1/CM]      123.26 [KJ/MOL]


 **********************************************************************************************************************************
 DATASETS  * FILE   NREC   LENGTH (MB)   RECORD NAMES
              1      19       29.64       500      610      700      900      950      970     1000      129      960     1100   
                                          VAR    BASINP    GEOM    SYMINP    ZMAT    AOBASIS   BASIS     P2S    ABASIS      S 
                                         1400     1410     1200     1210     1080     1600     1650     1300     1700   
                                           T        V       H0       H01     AOSYM     SMH    MOLCAS    ERIS     OPER   

              2       7        0.48       700     1000      520     2100     5300     5450     5400   
                                         GEOM     BASIS   MCVARS     RHF     HESS     NMOD     FREQ   

              4       5        0.28      4100     4000     4200     4300     4400   

 PROGRAMS   *        TOTAL      FREQ      OPTG    HF-SCF       INT
 CPU TIMES  *         1.41      0.59      0.55      0.02      0.14
 REAL TIME  *         1.64 SEC
 DISK USED  *        35.04 MB
 **********************************************************************************************************************************

 Dump information in style MOLDEN to ch4.molden                                                                      

 Molecular orbitals read from record     2100.2  Type=RHF/CANONICAL  
 Occupation numbers read from record     2100.2  Type=RHF/RHF  
 Orbital energies read from record       2100.2  Type=RHF/CANONICAL  
 Redundancy group numbers read from rec  2100.2  Type=RHF/RHF  

 DUMP ORBITAL  1.1 AS ORBITAL    1  occ=    2.0000  eig=  -11.2050  GROUP=   2
 DUMP ORBITAL  2.1 AS ORBITAL    2  occ=    2.0000  eig=   -0.9450  GROUP=   2
 DUMP ORBITAL  3.1 AS ORBITAL    3  occ=    2.0000  eig=   -0.5461  GROUP=   2
 DUMP ORBITAL  4.1 AS ORBITAL    4  occ=    2.0000  eig=   -0.5461  GROUP=   2
 DUMP ORBITAL  1.2 AS ORBITAL    5  occ=    2.0000  eig=   -0.5461  GROUP=   2

 Total charge:      10.000000
 Frequency information read from record  5400.2

 **********************************************************************************************************************************

 HF/6-311G(D,P)//HF/6-311G(D,P) energy=    -40.209011700986

    OPTG(HF-SCF)          HF-SCF
    -40.20901170    -40.20895112
 **********************************************************************************************************************************
 Molpro calculation terminated
