
 Working directory              : /tmp/lme/molpro.RRvHrOR3GO/
 Global scratch directory       : /tmp/lme/molpro.RRvHrOR3GO/
 Wavefunction directory         : /home/lme/wfu/
 Main file repository           : /tmp/lme/molpro.RRvHrOR3GO/

 id        : liedlgroup

 Nodes     nprocs
 sv1-c724     1
 GA implementation: MPI file
 GA implementation (serial work in mppx): MPI file

 Using customized tuning parameters: mindgm=1; mindgv=20; mindgc=4; mindgr=1; noblas=0; minvec=7
 default implementation of scratch files=df  


 Variables initialized (1042), CPU time= 0.00 sec
 
            orient,mass
            geometry=initial.xyz
 Including file /home/lme/Theoretische_Chemie/Nomodeco/metric_comparison/CH3CH2O.molpro/run/CH3CH2O_1.molpro/initial.xyz
            mass, iso
            basis=6-311g(d,p)
            {hf
            start, atden}
            optg;
            {frequencies, symm=auto, print=0, analytical}
            put, molden, CH3CH2O.molden
 Commands initialized (847), CPU time= 0.01 sec, 718 directives.
 Default parameters read. Elapsed time= 0.06 sec

 Checking input...
 Passed
1


                                         ***  PROGRAM SYSTEM MOLPRO  ***
                                       Copyright, TTI GmbH Stuttgart, 2015
                                    Version 2024.1 linked Wed Jan 31 11:42:09 2024


 **********************************************************************************************************************************
 LABEL *                                                                                                                                                                 
  (6 PROC) 64 bit serial version                                                         DATE: 25-Sep-24          TIME: 12:58:12  
 **********************************************************************************************************************************

 SHA1:             675817fde4514a4a933b69e420913a90cee4ef91
 **********************************************************************************************************************************

 Memory per process:        32 MW
 Total memory per node:     32 MW

 GA preallocation disabled
 GA check disabled

 Variable memory set to 32.0 MW

 ZCENTRE=MASS


 Geometry recognized as XYZ



 Using masses of most abundant isotopes

 **********************************************************************************************************************************
 SETTING BASIS          =    6-311G(D,P)


 Recomputing integrals since basis changed


 Using spherical harmonics

 Library entry C      S 6-311G               selected for orbital group  1
 Library entry C      P 6-311G               selected for orbital group  1
 Library entry C      D 6-311G*              selected for orbital group  1
 Library entry O      S 6-311G               selected for orbital group  2
 Library entry O      P 6-311G               selected for orbital group  2
 Library entry O      D 6-311G*              selected for orbital group  2
 Library entry H      S 6-311G               selected for orbital group  3
 Library entry H      P 6-311G**             selected for orbital group  3


 PROGRAM * SEWARD (Integral evaluation for generally contracted gaussian basis sets)     Author: Roland Lindh, 1990

 Geometry written to block  1 of record 700

 Orientation using atomic masses  
 Molecule type: Asymmetric top
 Symmetry elements: Y
 Rotational constants:      10.4076451      8.9204054     34.8167347 GHz

 Point group  Cs  



 ATOMIC COORDINATES

 NR  ATOM    CHARGE       X              Y              Z

   1  C       6.00   -0.476164657    0.000000000    2.282770723
   2  C       6.00    1.111185036    0.000000000   -0.139101269
   3  O       8.00   -0.605768212    0.000000000   -2.128213302
   4  H       1.00    2.306883704    1.694194273   -0.188534315
   5  H       1.00    2.306883704   -1.694194273   -0.188534315
   6  H       1.00    0.780374514    0.000000000    3.920018185
   7  H       1.00   -1.670621192    1.678210969    2.354512761
   8  H       1.00   -1.670621192   -1.678210969    2.354512761

 Bond lengths in Bohr (Angstrom)

 1-2  2.895711138  1-6  2.063848333  1-7  2.061132066  1-8  2.061132066  2-3  2.627640602
     ( 1.532344344)     ( 1.092141504)     ( 1.090704118)     ( 1.090704118)     ( 1.390487525)

 2-4  2.074230741  2-5  2.074230741
     ( 1.097635638)     ( 1.097635638)

 Bond angles

  1-2-3  105.95829605   1-2-4  109.62901482   1-2-5  109.62901482   2-1-6  109.25308373

  2-1-7  110.29083496   2-1-8  110.29083496   3-2-4  111.01583516   3-2-5  111.01583516

  4-2-5  109.52788424   6-1-7  108.97862374   6-1-8  108.97862374   7-1-8  109.02023896

 NUCLEAR CHARGE:                   25
 NUMBER OF PRIMITIVE AOS:         136
 NUMBER OF SYMMETRY AOS:          133
 NUMBER OF CONTRACTIONS:           84   (   56A'  +   28A"  )
 NUMBER OF INNER CORE ORBITALS:     0   (    0A'  +    0A"  )
 NUMBER OF OUTER CORE ORBITALS:     3   (    3A'  +    0A"  )
 NUMBER OF VALENCE ORBITALS:       17   (   12A'  +    5A"  )


 NUCLEAR REPULSION ENERGY   74.47916766


 Eigenvalues of metric

         1 0.350E-02 0.140E-01 0.218E-01 0.269E-01 0.309E-01 0.388E-01 0.403E-01 0.498E-01
         2 0.189E-01 0.228E-01 0.288E-01 0.523E-01 0.909E-01 0.118E+00 0.200E+00 0.306E+00


 Contracted 2-electron integrals neglected if value below      1.0D-11
 AO integral compression algorithm  1   Integral accuracy      1.0D-11

     15.991 MB (compressed) written to integral file ( 50.6%)


 NUMBER OF SORTED TWO-ELECTRON INTEGRALS:    3300955.     BUFFER LENGTH:  32768
 NUMBER OF SEGMENTS:   1  SEGMENT LENGTH:    3300955      RECORD LENGTH: 524288

 Memory used in sort:       3.86 MW

 SORT1 READ     3942589. AND WROTE     3160152. INTEGRALS IN     10 RECORDS. CPU TIME:     0.04 SEC, REAL TIME:     0.06 SEC
 SORT2 READ     3160152. AND WROTE     3300955. INTEGRALS IN     61 RECORDS. CPU TIME:     0.08 SEC, REAL TIME:     0.09 SEC

 FILE SIZES:   FILE 1:    46.3 MBYTE,  FILE 4:    42.0 MBYTE,   TOTAL:     88.3 MBYTE

 OPERATOR DM      FOR CENTER  0  COORDINATES:    0.000000    0.000000    0.000000


 **********************************************************************************************************************************
 DATASETS  * FILE   NREC   LENGTH (MB)   RECORD NAMES
              1      19       41.62       500      610      700      900      950      970     1000      129      960     1100   
                                          VAR    BASINP    GEOM    SYMINP    ZMAT    AOBASIS   BASIS     P2S    ABASIS      S 
                                         1400     1410     1200     1210     1080     1600     1650     1300     1700   
                                           T        V       H0       H01     AOSYM     SMH    MOLCAS    ERIS     OPER   

 PROGRAMS   *        TOTAL       INT
 CPU TIMES  *         0.65      0.54
 REAL TIME  *         0.77 SEC
 DISK USED  *        84.67 MB
 **********************************************************************************************************************************


 Program * Restricted Hartree-Fock

 Orbital guess generated from atomic densities.

 Initial alpha occupancy:  10   3
 Initial beta  occupancy:  10   2

 NELEC=   25   SYM=2   MS2= 1   THRE=1.0D-08   THRD=1.0D-06   THRG=1.0D-06  HFMA2=F  DIIS_START=2   DIIS_MAX=10   DIIS_INCORE=F

 Level shifts:    0.00 (CLOSED)    0.00 (OPEN)    0.30 (GAP_MIN)

 ITER           ETOT              DE          GRAD        DDIFF     DIIS  NEXP   TIME(IT)  TIME(TOT)  DIAG
   1     -153.36432799    -153.36432799     0.00D+00     0.62D-01     0     0       0.01      0.05    start
   2     -153.44555139      -0.08122341     0.94D-02     0.80D-02     1     0       0.02      0.07    diag2
   3     -153.47825060      -0.03269920     0.77D-02     0.40D-02     2     0       0.02      0.09    diag2
   4     -153.49074523      -0.01249463     0.20D-02     0.23D-02     3     0       0.02      0.11    diag2
   5     -153.49336275      -0.00261752     0.89D-03     0.12D-02     4     0       0.01      0.12    diag2
   6     -153.49352766      -0.00016491     0.30D-03     0.38D-03     5     0       0.02      0.14    diag2
   7     -153.49353617      -0.00000851     0.98D-04     0.90D-04     6     0       0.01      0.15    diag2
   8     -153.49353634      -0.00000017     0.12D-04     0.19D-04     7     0       0.02      0.17    fixocc
   9     -153.49353635      -0.00000001     0.32D-05     0.45D-05     8     0       0.01      0.18    diag2
  10     -153.49353635      -0.00000000     0.96D-06     0.14D-05     9     0       0.02      0.20    diag2/orth
  11     -153.49353635      -0.00000000     0.27D-06     0.38D-06     9     0       0.02      0.22    diag2
  12     -153.49353636      -0.00000000     0.53D-07     0.56D-07     0     0       0.02      0.24    diag

 Final alpha occupancy:  10   3
 Final beta  occupancy:  10   2

 !RHF STATE 1.2 Energy               -153.493536355000
  RHF One-electron energy            -356.116429172312
  RHF Two-electron energy             128.143725156182
  RHF Kinetic energy                  153.454955400335
  RHF Nuclear energy                   74.479167661130
  RHF Virial quotient                  -1.000251415502

 !RHF STATE 1.2 Dipole moment           0.49675522     0.00000000     0.55515876
 Dipole moment /Debye                   1.26262583     0.00000000     1.41107283

 Orbital energies:

           1.1          2.1          3.1          4.1          5.1          6.1          7.1          8.1          9.1         10.1
    -20.588417   -11.285643   -11.217825    -1.327774    -1.001823    -0.836311    -0.636323    -0.583484    -0.533704    -0.444580

          11.1         12.1
      0.156178     0.193987

           1.2          2.2          3.2          4.2          5.2
     -0.641186    -0.518511    -0.597809     0.198769     0.250759


 HOMO     10.1    -0.444580 =     -12.0977eV
 LUMO     11.1     0.156178 =       4.2498eV
 LUMO-HOMO         0.600758 =      16.3475eV

 Orbitals saved in record  2100.2


 **********************************************************************************************************************************
 DATASETS  * FILE   NREC   LENGTH (MB)   RECORD NAMES
              1      19       41.62       500      610      700      900      950      970     1000      129      960     1100   
                                          VAR    BASINP    GEOM    SYMINP    ZMAT    AOBASIS   BASIS     P2S    ABASIS      S 
                                         1400     1410     1200     1210     1080     1600     1650     1300     1700   
                                           T        V       H0       H01     AOSYM     SMH    MOLCAS    ERIS     OPER   

              2       4        0.62       700     1000      520     2100   
                                         GEOM     BASIS   MCVARS     RHF  

 PROGRAMS   *        TOTAL    HF-SCF       INT
 CPU TIMES  *         0.89      0.24      0.54
 REAL TIME  *         1.05 SEC
 DISK USED  *        84.67 MB
 **********************************************************************************************************************************


 PROGRAM * OPT (Geometry optimization)     Authors: F. Eckert and H.-J. Werner


 BFGS update of hessian

 *** Long output written to logfile /home/lme/Theoretische_Chemie/Nomodeco/metric_comparison/CH3CH2O.molpro/run/CH3CH2O_1.molpro/CH3CH2O_1.log ***


 Geometry optimization using default procedure for command HF-SCF

 Geometry written to block  1 of record 700

 PQS Optimization using delocalized internal coordinates

 Point group cs. Number of degrees of freedom:   11

 ITER.   ENERGY(OLD)    ENERGY(NEW)      DE          GRADMAX     GRADNORM    GRADRMS     STEPMAX     STEPLEN     STEPRMS   CPU-time
   1  -153.49353636  -153.49757729    -0.00404093  0.03376461  0.05154435  0.01554121  0.13555490  0.23209053  0.06997793      1.56
   2  -153.49757729  -153.49807954    -0.00050225  0.01128413  0.01736864  0.00523684  0.04076371  0.05706407  0.01720547      3.08
   3  -153.49807954  -153.49808760    -0.00000807  0.00088299  0.00194993  0.00058792  0.00596189  0.01111225  0.00335047      4.62
   4  -153.49808760  -153.49808799    -0.00000039  0.00029713  0.00053344  0.00016084  0.00081671  0.00177128  0.00053406      6.18

 END OF GEOMETRY OPTIMIZATION.

 Geometry written to block  1 of record 700

 Recomputing wavefunction for reoriented structure

 Current geometry (xyz format, in Angstrom)

    8
 HF-SCF000/6-311G(D,P)  ENERGY=-153.49808799
 C         -0.2297022414        0.0000000000        1.2536687378
 C          0.5311857614        0.0000000000       -0.0615150583
 O         -0.2947534294        0.0000000000       -1.1749100002
 H          1.1761322286        0.8723173001       -0.1492840141
 H          1.1761322286       -0.8723173001       -0.1492840141
 H          0.4590044295        0.0000000000        2.0942287202
 H         -0.8615160025        0.8791896800        1.3281193754
 H         -0.8615160025       -0.8791896800        1.3281193754

 **********************************************************************************************************************************


 **********************************************************************************************************************************
 DATASETS  * FILE   NREC   LENGTH (MB)   RECORD NAMES
              1      19       41.51       500      610      700      900      950      970     1000      129      960     1100   
                                          VAR    BASINP    GEOM    SYMINP    ZMAT    AOBASIS   BASIS     P2S    ABASIS      S 
                                         1400     1410     1200     1210     1080     1600     1650     1300     1700   
                                           T        V       H0       H01     AOSYM     SMH    MOLCAS    ERIS     OPER   

              2       4        0.62       700     1000      520     2100   
                                         GEOM     BASIS   MCVARS     RHF  

 PROGRAMS   *        TOTAL      OPTG    HF-SCF       INT
 CPU TIMES  *         7.75      6.86      0.24      0.54
 REAL TIME  *         8.39 SEC
 DISK USED  *        84.67 MB
 **********************************************************************************************************************************


 PROGRAM * HESSIAN

 Computing numerical hessian using default procedure for command HF-SCF

 Symmetry elements for unique displacements: Y  

 Using AUTO symmetry option

 Running default procedure: HF-SCF000


 Numerically approximating hessian using central gradient differences

 Task list generated. Total number of displacements:     32

    5 tasks completed, CPU=9s Elapsed=9s
   10 tasks completed, CPU=19s Elapsed=19s
   15 tasks completed, CPU=30s Elapsed=30s
   20 tasks completed, CPU=46s Elapsed=46s
   25 tasks completed, CPU=57s Elapsed=57s
   30 tasks completed, CPU=1m 9s Elapsed=1m 9s

 Numerical HF-SCF000 hessian completed. CPU-time:    74.97 sec, Elapsed:    75.00 sec

 HF-SCF hessian saved to record  5300.2

 PROGRAM * FREQUENCIES (Calculation of harmonic vibrational spectra for HF-SCF)


 Permanent Dipole Moment [debye]
     1-   3    1.154198    0.000000    1.577313

 Dipole Moment Norm    1.9545049 [debye]

 Dipole Moment Derivatives [debye/ang]
              1             2             3             4             5             6             7             8
    1    0.39118545    0.00000000    0.34589979    1.81113209    0.00000000   -0.09314171   -1.55701409    0.00000000
    2    0.00000000    1.08921412    0.00000000    0.00000000    0.65377908    0.00000000    0.00000000   -0.50627231
    3    0.67356205    0.00000000   -0.09155797   -0.03666869    0.00000000    3.46695012   -0.68530544    0.00000000
              9            10            11            12            13            14            15            16
    1   -0.09087037   -0.08127846   -0.61015487    0.08005573   -0.08127846    0.61015487    0.08005573   -0.28565778
    2    0.00000000   -0.79536962   -0.25216691   -0.24461052    0.79536962   -0.25216691    0.24461052    0.00000000
    3   -2.94714987    0.13534675    0.11835857   -0.11562333    0.13534675   -0.11835857   -0.11562333   -0.63326168
             17            18            19            20            21            22            23            24
    1    0.00000000   -0.43074453   -0.09842032    0.56127796    0.05410168   -0.09842032   -0.56127796    0.05410168
    2    0.22002959    0.00000000    0.48520142   -0.46296845    0.04992460   -0.48520142   -0.46296845   -0.04992460
    3    0.00000000   -0.48706998    0.20528639   -0.08999084    0.14527862    0.20528639    0.08999084    0.14527862

 Projecting out rotations and translations

 Force Constants (Second Derivatives of the Energy) in [a.u.]
                             CX1         CY1         CZ1         CX2         CY2     
           CX1           0.6200841
           CY1           0.0000000   0.6296203
           CZ1           0.0383455  -0.0000000   0.5682808
           CX2          -0.1447468  -0.0000000   0.0665635   0.5831291
           CY2           0.0000000  -0.0773103  -0.0000000   0.0000000   0.5297521
           CZ2           0.0774473  -0.0000000  -0.1831839  -0.0183939   0.0000000
           OX3           0.0145341   0.0000000   0.0047567  -0.1403901   0.0000000
           OY3           0.0000000  -0.0096830   0.0000000  -0.0000000   0.0039712
           OZ3          -0.0383472  -0.0000000  -0.0455228  -0.0947100  -0.0000000
           HX4          -0.0089306  -0.0103392   0.0021821  -0.1443780  -0.1527789
           HY4           0.0019498   0.0002821  -0.0007130  -0.1273075  -0.2257658
           HZ4           0.0193267   0.0357295  -0.0005628   0.0151228  -0.0133743
           HX5          -0.0089306   0.0103392   0.0021821  -0.1443780   0.1527789
           HY5          -0.0019498   0.0002821   0.0007130   0.1273075  -0.2257658
           HZ5           0.0193267  -0.0357295  -0.0005628   0.0151228   0.0133743
           HX6          -0.1706851   0.0000000  -0.1363275   0.0147336  -0.0000000
           HY6          -0.0000000  -0.0552145   0.0000000  -0.0000000  -0.0069303
           HZ6          -0.1324414  -0.0000000  -0.2226260  -0.0262418   0.0000000
           HX7          -0.1506626   0.1313257   0.0111489  -0.0119849   0.0162200
           HY7           0.1323179  -0.2439883  -0.0144712  -0.0013150   0.0010244
           HZ7           0.0081713  -0.0117577  -0.0579113   0.0212683  -0.0314084
           HX8          -0.1506626  -0.1313257   0.0111489  -0.0119849  -0.0162200
           HY8          -0.1323179  -0.2439883   0.0144712   0.0013150   0.0010244
           HZ8           0.0081713   0.0117577  -0.0579113   0.0212683   0.0314084
                             CZ2         OX3         OY3         OZ3         HX4     
           CZ2           0.5517529
           OX3          -0.1088721   0.1686524
           OY3          -0.0000000   0.0000000   0.0057363
           OZ3          -0.2215707   0.1549644   0.0000000   0.2781797
           HX4           0.0192858  -0.0229420  -0.0015311  -0.0134217   0.1545257
           HY4           0.0208952  -0.0018267  -0.0032467  -0.0047425   0.1464248
           HZ4          -0.0639065  -0.0254985  -0.0050537  -0.0038791  -0.0195246
           HX5           0.0192858  -0.0229420   0.0015311  -0.0134217   0.0219840
           HY5          -0.0208952   0.0018267  -0.0032467   0.0047425   0.0193196
           HZ5          -0.0639065  -0.0254985   0.0050537  -0.0038791   0.0084142
           HX6           0.0134512  -0.0003980   0.0000000   0.0061774   0.0007029
           HY6           0.0000000   0.0000000   0.0049466   0.0000000  -0.0011993
           HZ6          -0.0159400   0.0030732  -0.0000000  -0.0102473   0.0003731
           HX7          -0.0011021   0.0017428  -0.0007757  -0.0006206  -0.0002815
           HY7           0.0013607  -0.0010622   0.0007611  -0.0010135   0.0000951
           HZ7          -0.0016226  -0.0014626   0.0017312   0.0034596  -0.0012191
           HX8          -0.0011021   0.0017428   0.0007757  -0.0006206  -0.0006805
           HY8          -0.0013607   0.0010622   0.0007611   0.0010135   0.0000091
           HZ8          -0.0016226  -0.0014626  -0.0017312   0.0034596   0.0039103
                             HY4         HZ4         HX5         HY5         HZ5     
           HY4           0.2495763
           HZ4          -0.0150430   0.0595775
           HX5          -0.0193196   0.0084142   0.1545257
           HY5          -0.0241431   0.0015629  -0.1464248   0.2495763
           HZ5          -0.0015629   0.0125956  -0.0195246   0.0150430   0.0595775
           HX6          -0.0002696  -0.0012320   0.0007029   0.0002696  -0.0012320
           HY6           0.0005037  -0.0018662   0.0011993   0.0005037   0.0018662
           HZ6           0.0009240   0.0010100   0.0003731  -0.0009240   0.0010100
           HX7          -0.0001949  -0.0008503  -0.0006805  -0.0005436   0.0042417
           HY7           0.0010575  -0.0010562  -0.0000091   0.0017361   0.0008989
           HZ7           0.0006480   0.0010390   0.0039103   0.0004059  -0.0058737
           HX8           0.0005436   0.0042417  -0.0002815   0.0001949  -0.0008503
           HY8           0.0017361  -0.0008989  -0.0000951   0.0010575   0.0010562
           HZ8          -0.0004059  -0.0058737  -0.0012191  -0.0006480   0.0010390
                             HX6         HY6         HZ6         HX7         HY7     
           HX6           0.1804716
           HY6          -0.0000000   0.0526340
           HZ6           0.1501931   0.0000000   0.2401674
           HX7          -0.0127640   0.0181506   0.0023354   0.1596768
           HY7          -0.0013994   0.0017784   0.0011956  -0.1464047   0.2605955
           HZ7          -0.0155151   0.0247107   0.0033129  -0.0137966   0.0143781
           HX8          -0.0127640  -0.0181506   0.0023354   0.0149540   0.0177774
           HY8           0.0013994   0.0017784  -0.0011956  -0.0177774  -0.0229647
           HZ8          -0.0155151  -0.0247107   0.0033129  -0.0013564  -0.0012924
                             HZ7         HX8         HY8         HZ8     
           HZ7           0.0581049
           HX8          -0.0013564   0.1596768
           HY8           0.0012924   0.1464047   0.2605955
           HZ8          -0.0005087  -0.0137966  -0.0143781   0.0581049


 Atomic Masses
     1-   8   12.000000   12.000000   15.994910    1.007825    1.007825    1.007825    1.007825    1.007825

 Mass weighted Second Derivative Matrix
                             CX1         CY1         CZ1         CX2         CY2     
           CX1           0.0516737
           CY1           0.0000000   0.0524684
           CZ1           0.0031955  -0.0000000   0.0473567
           CX2          -0.0120622  -0.0000000   0.0055470   0.0485941
           CY2           0.0000000  -0.0064425  -0.0000000   0.0000000   0.0441460
           CZ2           0.0064539  -0.0000000  -0.0152653  -0.0015328   0.0000000
           OX3           0.0010491   0.0000000   0.0003433  -0.0101334   0.0000000
           OY3           0.0000000  -0.0006989   0.0000000  -0.0000000   0.0002866
           OZ3          -0.0027679  -0.0000000  -0.0032858  -0.0068362  -0.0000000
           HX4          -0.0025680  -0.0029731   0.0006275  -0.0415162  -0.0439319
           HY4           0.0005607   0.0000811  -0.0002050  -0.0366075  -0.0649195
           HZ4           0.0055574   0.0102741  -0.0001618   0.0043486  -0.0038458
           HX5          -0.0025680   0.0029731   0.0006275  -0.0415162   0.0439319
           HY5          -0.0005607   0.0000811   0.0002050   0.0366075  -0.0649195
           HZ5           0.0055574  -0.0102741  -0.0001618   0.0043486   0.0038458
           HX6          -0.0490809   0.0000000  -0.0392013   0.0042367  -0.0000000
           HY6          -0.0000000  -0.0158771   0.0000000  -0.0000000  -0.0019928
           HZ6          -0.0380838  -0.0000000  -0.0640166  -0.0075459   0.0000000
           HX7          -0.0433234   0.0377630   0.0032059  -0.0034463   0.0046641
           HY7           0.0380483  -0.0701594  -0.0041612  -0.0003781   0.0002946
           HZ7           0.0023497  -0.0033810  -0.0166525   0.0061158  -0.0090316
           HX8          -0.0433234  -0.0377630   0.0032059  -0.0034463  -0.0046641
           HY8          -0.0380483  -0.0701594   0.0041612   0.0003781   0.0002946
           HZ8           0.0023497   0.0033810  -0.0166525   0.0061158   0.0090316
                             CZ2         OX3         OY3         OZ3         HX4     
           CZ2           0.0459794
           OX3          -0.0078584   0.0105441
           OY3          -0.0000000   0.0000000   0.0003586
           OZ3          -0.0159930   0.0096884   0.0000000   0.0173918
           HX4           0.0055457  -0.0057141  -0.0003813  -0.0033429   0.1533260
           HY4           0.0060085  -0.0004550  -0.0008087  -0.0011812   0.1452879
           HZ4          -0.0183765  -0.0063508  -0.0012587  -0.0009661  -0.0193730
           HX5           0.0055457  -0.0057141   0.0003813  -0.0033429   0.0218133
           HY5          -0.0060085   0.0004550  -0.0008087   0.0011812   0.0191695
           HZ5          -0.0183765  -0.0063508   0.0012587  -0.0009661   0.0083488
           HX6           0.0038679  -0.0000991   0.0000000   0.0015386   0.0006975
           HY6           0.0000000   0.0000000   0.0012320   0.0000000  -0.0011900
           HZ6          -0.0045836   0.0007654  -0.0000000  -0.0025523   0.0003702
           HX7          -0.0003169   0.0004341  -0.0001932  -0.0001546  -0.0002793
           HY7           0.0003913  -0.0002646   0.0001896  -0.0002524   0.0000943
           HZ7          -0.0004666  -0.0003643   0.0004312   0.0008617  -0.0012096
           HX8          -0.0003169   0.0004341   0.0001932  -0.0001546  -0.0006752
           HY8          -0.0003913   0.0002646   0.0001896   0.0002524   0.0000090
           HZ8          -0.0004666  -0.0003643  -0.0004312   0.0008617   0.0038799
                             HY4         HZ4         HX5         HY5         HZ5     
           HY4           0.2476385
           HZ4          -0.0149262   0.0591149
           HX5          -0.0191695   0.0083488   0.1533260
           HY5          -0.0239556   0.0015507  -0.1452879   0.2476385
           HZ5          -0.0015507   0.0124978  -0.0193730   0.0149262   0.0591149
           HX6          -0.0002675  -0.0012224   0.0006975   0.0002675  -0.0012224
           HY6           0.0004998  -0.0018517   0.0011900   0.0004998   0.0018517
           HZ6           0.0009169   0.0010022   0.0003702  -0.0009169   0.0010022
           HX7          -0.0001933  -0.0008437  -0.0006752  -0.0005394   0.0042088
           HY7           0.0010493  -0.0010480  -0.0000090   0.0017226   0.0008920
           HZ7           0.0006430   0.0010310   0.0038799   0.0004027  -0.0058281
           HX8           0.0005394   0.0042088  -0.0002793   0.0001933  -0.0008437
           HY8           0.0017226  -0.0008920  -0.0000943   0.0010493   0.0010480
           HZ8          -0.0004027  -0.0058281  -0.0012096  -0.0006430   0.0010310
                             HX6         HY6         HZ6         HX7         HY7     
           HX6           0.1790703
           HY6          -0.0000000   0.0522253
           HZ6           0.1490269   0.0000000   0.2383027
           HX7          -0.0126649   0.0180097   0.0023173   0.1584370
           HY7          -0.0013886   0.0017646   0.0011863  -0.1452679   0.2585722
           HZ7          -0.0153947   0.0245188   0.0032872  -0.0136895   0.0142664
           HX8          -0.0126649  -0.0180097   0.0023173   0.0148379   0.0176394
           HY8           0.0013886   0.0017646  -0.0011863  -0.0176394  -0.0227864
           HZ8          -0.0153947  -0.0245188   0.0032872  -0.0013459  -0.0012823
                             HZ7         HX8         HY8         HZ8     
           HZ7           0.0576537
           HX8          -0.0013459   0.1584370
           HY8           0.0012823   0.1452679   0.2585722
           HZ8          -0.0005048  -0.0136895  -0.0142664   0.0576537


 Mass Weighted 2nd Derivative Matrix Eigenvalues
     1-  10    0.000000    0.000000    0.000000    0.000000    0.000000    0.000000    0.002375    0.002875    0.007854    0.033045
    11-  20    0.034784    0.050937    0.054223    0.070721    0.086195    0.090670    0.093956    0.096790    0.098734    0.377315
    21-  24    0.379749    0.385224    0.394625    0.397526

 Mass Weighted 2nd Derivative Matrix Eigenvectors
              1             2             3             4             5             6             7             8
    1    0.06034585    0.75096670    0.09061946    0.00205213    0.10381528    0.00518283    0.00000000    0.00000000
    2   -0.36794244   -0.04574643   -0.09316744    0.38159073    0.61398460    0.09195186   -0.04469868   -0.03831963
    3    0.25832300    0.09524751   -0.19815231    0.36759446   -0.11431548    0.11811826    0.00000000    0.00000000
    4    0.04963124    0.27396497    0.41713659    0.11890462    0.03769735    0.01239137    0.00000000    0.00000000
    5    0.43586388   -0.11164097    0.00790261   -0.13559162    0.54503009    0.09950948    0.48951421    0.19591342
    6    0.25212415   -0.18071765   -0.00924870    0.43519843   -0.15256743    0.12228870    0.00000000    0.00000000
    7    0.04682786   -0.14991438    0.80072225    0.25148658   -0.02110005    0.02135152    0.00000000    0.00000000
    8    0.02956184   -0.01929187    0.05470826   -0.26469417    0.03490352    0.90021379   -0.33499978   -0.00864865
    9    0.29885011    0.13720372   -0.24741572    0.41772121   -0.12820353    0.13595788    0.00000000    0.00000000
   10   -0.17339000    0.09608791    0.11927811    0.09590047   -0.06884170    0.11960315    0.24016864    0.43279079
   11    0.26961836   -0.05128156    0.00964216   -0.08960798    0.21007843   -0.04994105   -0.02787824   -0.25027233
   12    0.11753339   -0.11783308    0.05856560    0.07755623   -0.11227331    0.10495381    0.15746841    0.21932204
   13    0.20174206    0.04425306    0.13512592   -0.02246293    0.08813382   -0.11214222   -0.24016864   -0.43279079
   14    0.26961836   -0.05128156    0.00964216   -0.08960798    0.21007843   -0.04994105   -0.02787824   -0.25027233
   15    0.02555356   -0.12248969    0.02887961    0.20789978    0.00505184   -0.03202582   -0.15746841   -0.21932204
   16    0.01947292    0.30598145   -0.03421525   -0.02104852    0.04233217    0.00016684    0.00000000    0.00000000
   17   -0.00286022   -0.03596313   -0.03504674    0.12666027    0.29642830   -0.13083163   -0.41788429    0.36095687
   18    0.07323660   -0.04478557   -0.00787363    0.12426297   -0.04316278    0.03532490    0.00000000    0.00000000
   19   -0.17137958    0.25157890    0.01291880    0.05832566   -0.04793551    0.11816930    0.23554395   -0.26155617
   20   -0.24640860    0.00531568   -0.03400620    0.15901311    0.12609276    0.10472822    0.13666135   -0.18487753
   21    0.12270656    0.09635823   -0.08792310    0.02457622   -0.08304863    0.10225678    0.27991270   -0.11939365
   22    0.20670788    0.19933568    0.02889146   -0.06097023    0.11027671   -0.11540183   -0.23554395    0.26155617
   23   -0.24640860    0.00531568   -0.03400620    0.15901311    0.12609276    0.10472822    0.13666135   -0.18487753
   24    0.03000208    0.09166494   -0.11784297    0.15594665    0.03520084   -0.03580203   -0.27991270    0.11939365
              9            10            11            12            13            14            15            16
    1   -0.07352530    0.00000000   -0.03381318    0.28957952   -0.38622584    0.00000000    0.24474998    0.07761775
    2    0.00000000   -0.22047906    0.00000000    0.00000000    0.00000000    0.38252112    0.00000000    0.00000000
    3   -0.41227219    0.00000000    0.53673997   -0.17957803   -0.06772449    0.00000000   -0.17989887   -0.37700664
    4    0.41695146    0.00000000    0.37326830    0.03013465    0.53885505    0.00000000   -0.05904527    0.05093905
    5    0.00000000    0.01789515    0.00000000    0.00000000    0.00000000   -0.30651149    0.00000000    0.00000000
    6   -0.02058437    0.00000000   -0.11974818    0.60486072    0.03347693    0.00000000   -0.36636781    0.35185677
    7   -0.25808368    0.00000000   -0.20664117   -0.29443887   -0.26759100    0.00000000   -0.01874002    0.02471560
    8    0.00000000   -0.03393970    0.00000000    0.00000000    0.00000000   -0.02116244    0.00000000    0.00000000
    9    0.53934641    0.00000000   -0.36264720   -0.41336024   -0.14032871    0.00000000    0.06353896   -0.04966373
   10    0.10297022   -0.10102927    0.08224087   -0.02505267    0.14795210   -0.14439863    0.01411879   -0.14119946
   11    0.00742526    0.12298354    0.00357595    0.02012941    0.01657267    0.06565716    0.02638735    0.06326446
   12   -0.05315885    0.42701687   -0.14030895    0.28194969    0.15377128    0.47686034    0.43644400   -0.33671995
   13    0.10297022    0.10102927    0.08224087   -0.02505267    0.14795210    0.14439863    0.01411879   -0.14119946
   14   -0.00742526    0.12298354   -0.00357595   -0.02012941   -0.01657267    0.06565716   -0.02638735   -0.06326446
   15   -0.05315885   -0.42701687   -0.14030895    0.28194969    0.15377128   -0.47686034    0.43644400   -0.33671995
   16   -0.25488396    0.00000000   -0.34653659   -0.02477259    0.24490806    0.00000000   -0.31321935   -0.33933560
   17    0.00000000    0.22511928    0.00000000    0.00000000    0.00000000   -0.16702051    0.00000000    0.00000000
   18    0.06826061    0.00000000    0.42921173    0.03119665   -0.29453043    0.00000000    0.26974114    0.19839220
   19   -0.05396826    0.28629602   -0.08302982    0.07232561   -0.00072388   -0.22059327   -0.14057967    0.03983536
   20   -0.00736348    0.18158221   -0.02889686   -0.00110248    0.04757259   -0.07113381   -0.16251501   -0.02726253
   21   -0.30848423   -0.35637942   -0.07138024   -0.20792026    0.33210299    0.24374839    0.24460330    0.37984064
   22   -0.05396826   -0.28629602   -0.08302982    0.07232561   -0.00072388    0.22059327   -0.14057967    0.03983536
   23    0.00736348    0.18158221    0.02889686    0.00110248   -0.04757259   -0.07113381    0.16251501    0.02726253
   24   -0.30848423    0.35637942   -0.07138024   -0.20792026    0.33210299   -0.24374839    0.24460330    0.37984064
             17            18            19            20            21            22            23            24
    1    0.05473477    0.00000000   -0.16523533   -0.00351897    0.06955916    0.00000000   -0.26969293    0.00000000
    2    0.00000000   -0.17164709    0.00000000    0.00000000    0.00000000    0.08430342    0.00000000   -0.29636492
    3   -0.08133880    0.00000000   -0.02845060    0.08842385   -0.13592002    0.00000000   -0.14027850    0.00000000
    4   -0.24800628    0.00000000   -0.09805868   -0.19373000   -0.11359522    0.00000000   -0.02597162    0.00000000
    5    0.00000000   -0.07803897    0.00000000    0.00000000    0.00000000   -0.29352726    0.00000000   -0.08733500
    6    0.13217040    0.00000000   -0.13070156    0.03139326    0.02740709    0.00000000    0.00151435    0.00000000
    7   -0.03756119    0.00000000    0.00064037   -0.00586636   -0.00384880    0.00000000    0.00079847    0.00000000
    8    0.00000000    0.01357749    0.00000000    0.00000000    0.00000000   -0.00325626    0.00000000    0.00066975
    9   -0.03645024    0.00000000    0.01901952   -0.00694562   -0.00530872    0.00000000    0.00081502    0.00000000
   10    0.50267301   -0.03828641    0.07895973    0.34431273    0.19534587    0.38898568    0.03991223    0.11033030
   11   -0.42171890    0.00412375   -0.06286394    0.48570614    0.27184495    0.51482558    0.05426520    0.14837417
   12   -0.08937590    0.00783668    0.11818200   -0.04148783   -0.02696888   -0.04727193   -0.00592440   -0.01860057
   13    0.50267301    0.03828641    0.07895973    0.34431273    0.19534587   -0.38898568    0.03991223   -0.11033030
   14    0.42171890    0.00412375    0.06286394   -0.48570614   -0.27184495    0.51482558   -0.05426520    0.14837417
   15   -0.08937590   -0.00783668    0.11818200   -0.04148783   -0.02696888    0.04727193   -0.00592440    0.01860057
   16   -0.04124465    0.00000000   -0.25803091   -0.24511113    0.33162821    0.00000000    0.45315616    0.00000000
   17    0.00000000    0.70192176    0.00000000    0.00000000    0.00000000    0.00597734    0.00000000   -0.01480390
   18    0.01627774    0.00000000    0.18238523   -0.28450016    0.40027675    0.00000000    0.55731676    0.00000000
   19   -0.07377843    0.16601144    0.50304492    0.13024440   -0.27751753    0.10985228    0.24203330   -0.38198838
   20   -0.07085313    0.04865707    0.38018021   -0.18178147    0.39495055   -0.15035135   -0.36208344    0.51969643
   21    0.06614196    0.45200970    0.02732774   -0.00914919    0.02462381   -0.00901428   -0.03494574    0.04033935
   22   -0.07377843   -0.16601144    0.50304492    0.13024440   -0.27751753   -0.10985228    0.24203330    0.38198838
   23    0.07085313    0.04865707   -0.38018021    0.18178147   -0.39495055   -0.15035135    0.36208344    0.51969643
   24    0.06614196   -0.45200970    0.02732774   -0.00914919    0.02462381    0.00901428   -0.03494574   -0.04033935

   Low Vibration      Wavenumber
        Nr             [1/cm] 
        1                0.00
        2                0.00
        3                0.00
        4                0.00
        5                0.00
        6                0.00

     Vibration        Wavenumber
        Nr             [1/cm] 
        1              250.54
        2              275.61
        3              455.56
        4              934.45
        5              958.72
        6             1160.17
        7             1197.00
        8             1367.03
        9             1509.20
       10             1547.88
       11             1575.67
       12             1599.26
       13             1615.24
       14             3157.59
       15             3167.76
       16             3190.51
       17             3229.21
       18             3241.06

 FREQUENCIES * CALCULATION OF NORMAL MODES FOR HF-SCF


 Atomic Coordinates

  Nr  Atom  Charge       X              Y              Z

   1   C     6.00   -0.434074326    0.000000000    2.369090565
   2   C     6.00    1.003795610    0.000000000   -0.116246613
   3   O     8.00   -0.557003256    0.000000000   -2.220258121
   4   H     1.00    2.222567798    1.648440791   -0.282105901
   5   H     1.00    2.222567798   -1.648440791   -0.282105901
   6   H     1.00    0.867392662    0.000000000    3.957518724
   7   H     1.00   -1.628029297    1.661427707    2.509781880
   8   H     1.00   -1.628029297   -1.661427707    2.509781880

 Gradient norm at reference geometry: 0.10715D-02

 ?WARNING: GRADIENT NORM NOT ZERO!

 Normal Modes

                              1 A``       2 A``       3 A`        4 A``       5 A` 
 Wavenumbers [cm-1]          250.54      275.61      455.56      934.45      958.72
 Intensities [km/mol]          3.42       18.18        6.73        0.10        2.77
 Intensities [relative]        5.65       29.99       11.10        0.16        4.57
           CX1              0.00000     0.00000    -0.02122     0.00000    -0.00976
           CY1             -0.01290    -0.01106     0.00000    -0.06365     0.00000
           CZ1              0.00000     0.00000    -0.11901     0.00000     0.15494
           CX2              0.00000     0.00000     0.12036     0.00000     0.10775
           CY2              0.14131     0.05656     0.00000     0.00517     0.00000
           CZ2              0.00000     0.00000    -0.00594    -0.00000    -0.03457
           OX3              0.00000     0.00000    -0.06453    -0.00000    -0.05167
           OY3             -0.08376    -0.00216    -0.00000    -0.00849     0.00000
           OZ3             -0.00000     0.00000     0.13486    -0.00000    -0.09068
           HX4              0.23923     0.43111     0.10257    -0.10064     0.08192
           HY4             -0.02777    -0.24930     0.00740     0.12251     0.00356
           HZ4              0.15686     0.21847    -0.05295     0.42536    -0.13976
           HX5             -0.23923    -0.43111     0.10257     0.10064     0.08192
           HY5             -0.02777    -0.24930    -0.00740     0.12251    -0.00356
           HZ5             -0.15686    -0.21847    -0.05295    -0.42536    -0.13976
           HX6              0.00000     0.00000    -0.25389    -0.00000    -0.34519
           HY6             -0.41626     0.35955     0.00000     0.22424    -0.00000
           HZ6              0.00000     0.00000     0.06800     0.00000     0.42754
           HX7              0.23463    -0.26054    -0.05376     0.28518    -0.08271
           HY7              0.13613    -0.18416    -0.00733     0.18088    -0.02878
           HZ7              0.27882    -0.11893    -0.30728    -0.35499    -0.07110
           HX8             -0.23463     0.26054    -0.05376    -0.28518    -0.08271
           HY8              0.13613    -0.18416     0.00733     0.18088     0.02878
           HZ8             -0.27882     0.11893    -0.30728     0.35499    -0.07110

                              6 A`        7 A`        8 A``       9 A`       10 A` 
 Wavenumbers [cm-1]         1160.17     1197.00     1367.03     1509.20     1547.88
 Intensities [km/mol]         36.69       10.59        0.73        5.50       21.99
 Intensities [relative]       60.52       17.47        1.20        9.08       36.27
           CX1              0.08359    -0.11149     0.00000     0.07065     0.02241
           CY1             -0.00000     0.00000     0.11042    -0.00000     0.00000
           CZ1             -0.05184    -0.01955    -0.00000    -0.05193    -0.10883
           CX2              0.00870     0.15555    -0.00000    -0.01704     0.01470
           CY2             -0.00000    -0.00000    -0.08848     0.00000     0.00000
           CZ2              0.17461     0.00966     0.00000    -0.10576     0.10157
           OX3             -0.07362    -0.06691     0.00000    -0.00469     0.00618
           OY3             -0.00000    -0.00000    -0.00529    -0.00000     0.00000
           OZ3             -0.10336    -0.03509    -0.00000     0.01589    -0.01242
           HX4             -0.02496     0.14738    -0.14384     0.01406    -0.14065
           HY4              0.02005     0.01651     0.06540     0.02628     0.06302
           HZ4              0.28085     0.15317     0.47501     0.43475    -0.33541
           HX5             -0.02496     0.14738     0.14384     0.01406    -0.14065
           HY5             -0.02005    -0.01651     0.06540    -0.02628    -0.06302
           HZ5              0.28085     0.15317    -0.47501     0.43475    -0.33541
           HX6             -0.02468     0.24396    -0.00000    -0.31200    -0.33802
           HY6              0.00000    -0.00000    -0.16637     0.00000     0.00000
           HZ6              0.03108    -0.29338     0.00000     0.26869     0.19762
           HX7              0.07204    -0.00072    -0.21974    -0.14003     0.03968
           HY7             -0.00110     0.04739    -0.07086    -0.16188    -0.02716
           HZ7             -0.20711     0.33081     0.24280     0.24365     0.37836
           HX8              0.07204    -0.00072     0.21974    -0.14003     0.03968
           HY8              0.00110    -0.04739    -0.07086     0.16188     0.02716
           HZ8             -0.20711     0.33081    -0.24280     0.24365     0.37836

                             11 A`       12 A``      13 A`       14 A`       15 A` 
 Wavenumbers [cm-1]         1575.67     1599.26     1615.24     3157.59     3167.76
 Intensities [km/mol]          5.33        3.77        4.83       42.58        8.67
 Intensities [relative]        8.78        6.22        7.96       70.22       14.29
           CX1              0.01580    -0.00000    -0.04770    -0.00102     0.02008
           CY1             -0.00000    -0.04955    -0.00000     0.00000    -0.00000
           CZ1             -0.02348     0.00000    -0.00821     0.02553    -0.03924
           CX2             -0.07159     0.00000    -0.02831    -0.05593    -0.03279
           CY2              0.00000    -0.02253    -0.00000     0.00000     0.00000
           CZ2              0.03815    -0.00000    -0.03773     0.00906     0.00791
           OX3             -0.00939     0.00000     0.00016    -0.00147    -0.00096
           OY3             -0.00000     0.00339    -0.00000    -0.00000     0.00000
           OZ3             -0.00911     0.00000     0.00476    -0.00174    -0.00133
           HX4              0.50072    -0.03814     0.07865     0.34297     0.19459
           HY4             -0.42008     0.00411    -0.06262     0.48382     0.27079
           HZ4             -0.08903     0.00781     0.11772    -0.04133    -0.02686
           HX5              0.50072     0.03814     0.07865     0.34297     0.19459
           HY5              0.42008     0.00411     0.06262    -0.48382    -0.27079
           HZ5             -0.08903    -0.00781     0.11772    -0.04133    -0.02686
           HX6             -0.04108     0.00000    -0.25703    -0.24416     0.33034
           HY6              0.00000     0.69919     0.00000     0.00000    -0.00000
           HZ6              0.01621    -0.00000     0.18168    -0.28339     0.39872
           HX7             -0.07349     0.16537     0.50109     0.12974    -0.27644
           HY7             -0.07058     0.04847     0.37870    -0.18107     0.39341
           HZ7              0.06588     0.45025     0.02722    -0.00911     0.02453
           HX8             -0.07349    -0.16537     0.50109     0.12974    -0.27644
           HY8              0.07058     0.04847    -0.37870     0.18107    -0.39341
           HZ8              0.06588    -0.45025     0.02722    -0.00911     0.02453

                             16 A``      17 A`       18 A``
 Wavenumbers [cm-1]         3190.51     3229.21     3241.06
 Intensities [km/mol]         17.05       46.26       60.63
 Intensities [relative]       28.12       76.29      100.00
           CX1              0.00000    -0.07785    -0.00000
           CY1              0.02434     0.00000    -0.08555
           CZ1             -0.00000    -0.04049    -0.00000
           CX2             -0.00000    -0.00750    -0.00000
           CY2             -0.08473     0.00000    -0.02521
           CZ2              0.00000     0.00044     0.00000
           OX3              0.00000     0.00020    -0.00000
           OY3             -0.00081    -0.00000     0.00017
           OZ3             -0.00000     0.00020    -0.00000
           HX4              0.38747     0.03976     0.10990
           HY4              0.51282     0.05405     0.14780
           HZ4             -0.04709    -0.00590    -0.01853
           HX5             -0.38747     0.03976    -0.10990
           HY5              0.51282    -0.05405     0.14780
           HZ5              0.04709    -0.00590     0.01853
           HX6              0.00000     0.45139     0.00000
           HY6              0.00595     0.00000    -0.01475
           HZ6              0.00000     0.55515     0.00000
           HX7              0.10942     0.24109    -0.38050
           HY7             -0.14977    -0.36068     0.51767
           HZ7             -0.00898    -0.03481     0.04018
           HX8             -0.10942     0.24109     0.38050
           HY8             -0.14977     0.36068     0.51767
           HZ8              0.00898    -0.03481    -0.04018


 Normal Modes of low/zero frequencies

                                  1           2           3           4           5
 Wavenumbers [cm-1]            0.00        0.00        0.00        0.00        0.00
 Intensities [km/mol]          0.00        0.00        0.00        0.00        0.00
 Intensities [relative]        0.00        0.00        0.00        0.00        0.00
           CX1              0.01742     0.21679     0.02616     0.00059     0.02997
           CY1             -0.10622    -0.01321    -0.02690     0.11016     0.17724
           CZ1              0.07457     0.02750    -0.05720     0.10612    -0.03300
           CX2              0.01433     0.07909     0.12042     0.03432     0.01088
           CY2              0.12582    -0.03223     0.00228    -0.03914     0.15734
           CZ2              0.07278    -0.05217    -0.00267     0.12563    -0.04404
           OX3              0.01171    -0.03748     0.20021     0.06288    -0.00528
           OY3              0.00739    -0.00482     0.01368    -0.06618     0.00873
           OZ3              0.07472     0.03431    -0.06186     0.10445    -0.03206
           HX4             -0.17272     0.09571     0.11881     0.09553    -0.06857
           HY4              0.26857    -0.05108     0.00960    -0.08926     0.20926
           HZ4              0.11708    -0.11737     0.05834     0.07725    -0.11184
           HX5              0.20096     0.04408     0.13460    -0.02238     0.08779
           HY5              0.26857    -0.05108     0.00960    -0.08926     0.20926
           HZ5              0.02545    -0.12201     0.02877     0.20709     0.00503
           HX6              0.01940     0.30479    -0.03408    -0.02097     0.04217
           HY6             -0.00285    -0.03582    -0.03491     0.12617     0.29528
           HZ6              0.07295    -0.04461    -0.00784     0.12378    -0.04299
           HX7             -0.17071     0.25060     0.01287     0.05810    -0.04775
           HY7             -0.24545     0.00530    -0.03387     0.15839     0.12560
           HZ7              0.12223     0.09598    -0.08758     0.02448    -0.08273
           HX8              0.20590     0.19856     0.02878    -0.06073     0.10985
           HY8             -0.24545     0.00530    -0.03387     0.15839     0.12560
           HZ8              0.02989     0.09131    -0.11738     0.15534     0.03506

                                  6
 Wavenumbers [cm-1]            0.00
 Intensities [km/mol]          0.00
 Intensities [relative]        0.00
           CX1              0.00150
           CY1              0.02654
           CZ1              0.03410
           CX2              0.00358
           CY2              0.02873
           CZ2              0.03530
           OX3              0.00534
           OY3              0.22509
           OZ3              0.03399
           HX4              0.11914
           HY4             -0.04975
           HZ4              0.10455
           HX5             -0.11171
           HY5             -0.04975
           HZ5             -0.03190
           HX6              0.00017
           HY6             -0.13032
           HZ6              0.03519
           HX7              0.11771
           HY7              0.10432
           HZ7              0.10186
           HX8             -0.11495
           HY8              0.10432
           HZ8             -0.03566


 Frequencies dumped to record   5400.2
 Frequency information read from record  5400.2

 Zero point energy:  0.06933027 [H]    15216.23 [1/CM]      182.03 [KJ/MOL]

 Recomputing wavefunction at initial geometry


 **********************************************************************************************************************************
 DATASETS  * FILE   NREC   LENGTH (MB)   RECORD NAMES
              1      19       41.51       500      610      700      900      950      970     1000      129      960     1100   
                                          VAR    BASINP    GEOM    SYMINP    ZMAT    AOBASIS   BASIS     P2S    ABASIS      S 
                                         1400     1410     1200     1210     1080     1600     1650     1300     1700   
                                           T        V       H0       H01     AOSYM     SMH    MOLCAS    ERIS     OPER   

              2       7        0.68       700     1000      520     2100     5300     5450     5400   
                                         GEOM     BASIS   MCVARS     RHF     HESS     NMOD     FREQ   

 PROGRAMS   *        TOTAL      FREQ      OPTG    HF-SCF       INT
 CPU TIMES  *        78.32     70.57      6.86      0.24      0.54
 REAL TIME  *        84.01 SEC
 DISK USED  *       125.44 MB
 **********************************************************************************************************************************

 Dump information in style MOLDEN to ch3ch2o.molden                                                                  

 Molecular orbitals read from record     2100.2  Type=RHF/CANONICAL  
 Occupation numbers read from record     2100.2  Type=RHF/RHF  
 Orbital energies read from record       2100.2  Type=RHF/CANONICAL  
 Redundancy group numbers read from rec  2100.2  Type=RHF/RHF  

 DUMP ORBITAL  1.1 AS ORBITAL    1  occ=    2.0000  eig=  -20.5868  GROUP=   2
 DUMP ORBITAL  2.1 AS ORBITAL    2  occ=    2.0000  eig=  -11.2819  GROUP=   2
 DUMP ORBITAL  3.1 AS ORBITAL    3  occ=    2.0000  eig=  -11.2194  GROUP=   2
 DUMP ORBITAL  4.1 AS ORBITAL    4  occ=    2.0000  eig=   -1.3276  GROUP=   2
 DUMP ORBITAL  5.1 AS ORBITAL    5  occ=    2.0000  eig=   -1.0085  GROUP=   2
 DUMP ORBITAL  6.1 AS ORBITAL    6  occ=    2.0000  eig=   -0.8393  GROUP=   2
 DUMP ORBITAL  1.2 AS ORBITAL    7  occ=    2.0000  eig=   -0.6405  GROUP=   2
 DUMP ORBITAL  7.1 AS ORBITAL    8  occ=    2.0000  eig=   -0.6350  GROUP=   2
 DUMP ORBITAL  8.1 AS ORBITAL    9  occ=    2.0000  eig=   -0.5903  GROUP=   2
 DUMP ORBITAL  9.1 AS ORBITAL   10  occ=    2.0000  eig=   -0.5356  GROUP=   2
 DUMP ORBITAL  2.2 AS ORBITAL   11  occ=    2.0000  eig=   -0.5202  GROUP=   2
 DUMP ORBITAL 10.1 AS ORBITAL   12  occ=    2.0000  eig=   -0.4516  GROUP=   2
 DUMP ORBITAL  3.2 AS ORBITAL   13  occ=    1.0000  eig=   -0.5918  GROUP=   1

 Total charge:      25.000000
 Frequency information read from record  5400.2

 **********************************************************************************************************************************

 HF/6-311G(D,P) energy=   -153.498087994409

    OPTG(HF-SCF)          HF-SCF
   -153.49808799   -153.49353636
 **********************************************************************************************************************************
 Molpro calculation terminated
