[Molden Format]
[Molpro variables]
_NUMVAR=  1088.000000000000    
_AVOGAD= 0.6022140760000000E+24
_BOLTZ= 0.1380649000000000E-22
_CLIGHTSI=  299792458.0000000    
_JOULE= 0.4359744722207100E-17
_JPCAL=  4.184000000000000    
_PLANCK= 0.6626070150000000E-33
_BOHR= 0.5291772109030000E-10
_ECHARG= 0.1602176634000000E-18
_ENULL= 0.8854187812800001E-11
_MU= 0.1660539066600000E-26
_EMASS= 0.9109383701500001E-30
_AMU2AU=  1822.888486217313    
_CLIGHT=  29979245800.00000    
_EV= 0.3674932217565494E-01
_KJOULE= 0.3808798847133432E-03
_KJOULE/MOL= 0.3808798847133432E-03
_CM= 0.4556335252912009E-05
_CM-1= 0.4556335252912009E-05
_DEB2SI= 0.3335640951981520E-29
_KCAL= 0.1593601437640628E-02
_KCAL/MOL= 0.1593601437640628E-02
_KELVIN= 0.3166811563455608E-05
_HERTZ= 0.1519829846057038E-15
_HZ= 0.1519829846057038E-15
_TOA= 0.5291772109030000    
_TOANG= 0.5291772109030000    
_TORAD= 0.1745329251994330E-01
_TOCM=  219474.6313631965    
_TODEBYE=  2.541746473194078    
_TOE= 0.4803204712570263E-09
_TOEV=  27.21138624598803    
_TOHERTZ=  6579683920501656.    
_TOHZ=  6579683920501656.    
_TOK=  315775.0248040668    
_TOKCAL=  627.5094740630558    
_TOKELVIN=  315775.0248040668    
_TOKJ=  2625.499639479825    
_TOKJOULE=  2625.499639479825    
_TOKG= 0.1660539066600000E-26
_ANG=  1.889726124625770    
_ANGSTROM=  1.889726124625770    
_RPAREF=  0.000000000000000    
_RPADISS=  0.000000000000000    
_IGNORE_UNDEF=  2.000000000000000    
_STRICTCHECK=  0.000000000000000    
!SEWARD=  0.000000000000000    
!MULTI=  0.000000000000000    
!DFMULTI=  0.000000000000000    
!NUMHESS=  0.000000000000000    
_SEW_ONEEL=  0.000000000000000    
_CPPDONE=FALSE
_DKROLL_DONE=  0.000000000000000    
_FNUC_DONE=  0.000000000000000    
_FOCKDONE=TRUE
_GRADONE=FALSE
_HESSDONE=TRUE
_INTDONE=TRUE
_SCFDONE=TRUE
_MODUL_BLOCK=FALSE
_MODUL_SLATER=TRUE
_MODUL_MRCC=FALSE
_MODUL_NBO6=FALSE
_MODUL_NECI=FALSE
_MODUL_AIMS=TRUE
_MODUL_HDF5=FALSE
_MODUL_GECCO=FALSE
_ISWINDOWS=FALSE
_MRCC_EXEC=
_FITC_AO_SAVED=FALSE
_FITC_MO_SAVED=FALSE
_LSTYP=SEWARD
_INTYP=INTS
_GEOMTYP=XYZ
_GRADTYP=ALASKA
_DIRECT=FALSE
_DKHO= -1.000000000000000    
_FNUC=  0.000000000000000    
_SYNCM=  0.000000000000000    
_BASIS=6-311G(D,P)
_ZCENTRE=MASS
_ZORIENT=  1.000000000000000    
_NELEC=  25.00000000000000    
!SPIN=  1.000000000000000    
_OPTCONV= 0.1771276100077108E-02
_QSDSTEP=  0.000000000000000    
_QSDIRC=  0.000000000000000    
_PROGRAM=FREQ
_CPUSTEP=  0.000000000000000    
_SYSSTEP=  0.000000000000000    
_WALLSTEP=  0.000000000000000    
!DFSCF=  0.000000000000000    
!SCSGRD=  0.000000000000000    
_NCEN=  8.000000000000000    
_CPUTOT=  78.32000000000001    
_CPUSORT= 0.1400000000000006    
_SYSSORT= 0.4000000000000004E-01
_WALLSORT= 0.1799999997019768    
_DFTEXFAC=  1.000000000000000    
_DMX= 0.4540964738538098    
_DMY=  0.000000000000000    
_DMZ= 0.6205627085137246    
_DMX_SCF= 0.4540964738538098    
_DMY_SCF=  0.000000000000000    
_DMZ_SCF= 0.6205627085137246    
_FREQUENCIES= 0.2739081974522830E-04
_HOMO=  10.10000000000000    
_EHOMO=-0.4515726789638567    
_LUMO=  11.10000000000000    
_ELUMO= 0.1563222342719136    
_ENERGY= -153.4980879944086    
_ENERGY_METHOD=HF
_ENERGY_BASIS=6-311G(D,P)
_GEOMETRY_METHOD=
_GEOMETRY_BASIS=
_ENUC=  74.29045483406243    
_FREQSTEP=  33.00000000000000    
_GRADENERG= -153.4980852263509    
_GRADEXFAC=  9999.000000000000    
_GRADMETHOD=  2.000000000000000    
_NMRMETHOD=  0.000000000000000    
_NMRMAGNET=  0.000000000000000    
_VIRIAL=-0.5321370364131423E-03
!GRID_FREEZE= -1.000000000000000    
!NEESE_INDEX=  0.000000000000000    
_ITERATIONS=  2.000000000000000    
_LASTNELEC=  25.00000000000000    
_LASTSPIN=  1.000000000000000    
_LASTSYM=  2.000000000000000    
_MPP_PROG=  0.000000000000000    
_MSNSTATES=  0.000000000000000    
_RS2PHASE=  0.000000000000000    
_NPROC_MPP=  1.000000000000000    
_NPROC_SMP=  6.000000000000000    
_NUMSTEP=  0.000000000000000    
_OPTCONVMX= 0.8167144515280915E-03
_OPTCONVRMS= 0.5340598385527061E-03
_OPTGRAD= 0.5334373131093763E-03
_OPTGRADMX= 0.2971323930471430E-03
_OPTGRADRMS= 0.1608374015235575E-03
!GMAXLAST= 0.2971323930471430E-03
!DMAXLAST= 0.8167144515280915E-03
!DELAST= 0.8065676212254402E-05
_OPTSTEP=  4.000000000000000    
_ORBITAL=  2100.200000000000    
_PI=  3.141592653589793    
_SEIG_MIN= 0.3380988809819811E-02
_SEWPROP=TRUE
_STATUS=  1.000000000000000    
_SYSTOT=  5.660000000000000    
_VERSION=  2024001.000000000    
_WALLTOT=  84.01000000000001    
_ZPE= 0.6933026512509537E-01
_DATE=25-Sep-24
_LASTORB=0
_OUTPUT=/home/lme/Theoretische_Chemie/Nomodeco/metric_comparison/CH3CH2O.molpro/run/CH3CH2O_1.molpro/CH3CH2O_1.out
_PGROUP=Cs
_TIME=12:58:12
_LIBMOL=/usr/local/molpro/molpro_2024.1.0_sockets/lib/
_VIGRDC=  0.000000000000000    
!VIBCNT=  0.000000000000000    
!SURFREC=  0.000000000000000    
!XSURFREC=  0.000000000000000    
!XPOLYREC=  0.000000000000000    
!ROTREC=  0.000000000000000    
!POLYREC=  0.000000000000000    
!DIPREC=  0.000000000000000    
!DIP4DREC=  0.000000000000000    
!DIPROT=  0.000000000000000    
!DIP4DROT=  0.000000000000000    
!PTREC=  0.000000000000000    
!PT4DREC=  0.000000000000000    
!VSCFREC=  0.000000000000000    
!VCIREC=  0.000000000000000    
!PVCIREC=  0.000000000000000    
!VMP2REC=  0.000000000000000    
!VMCSCFREC=  0.000000000000000    
!VMRCIREC=  0.000000000000000    
!VIBSTATEREC=  0.000000000000000    
!VIBSTATECNT=  0.000000000000000    
!VIBINFO=  0.000000000000000    
!GAREC=  0.000000000000000    
!SCFORB=  21002.00000000000    
!DEFCORE=  3.000000000000000    
!SCORE=  0.000000000000000    
!NEWMOL=  0.000000000000000    
!NEWSYM=  1.000000000000000    
_SLFILES=slscratch
_NGSSTO=  9.000000000000000    
_SIN=SIN
_COS=COS
_TAN=TAN
_ACOS=ACOS
_ASIN=ASIN
_ATAN=ATAN
_COSH=COSH
_SINH=SINH
_TANH=TANH
_ABS=ABS
_MOD=MOD
_ERF=ERF
_REFC=REFC
_ERFC=ERFC
_HYPOT=HYPOT
_J0=J0
_J1=J1
_JN=JN
_GAMMA=GAMMA
_LGAMMA=LGAMMA
_Y0=Y0
_Y1=Y1
_YN=YN
_EXP=EXP
_LOG=LOG
_LOG10=LOG10
_SQRT=SQRT
_INT=INT
_NINT=NINT
_MAX=MAX
_MIN=MIN
_COSMO=  0.000000000000000    
_COSMOIT=  0.000000000000000    
_COSMOES=  0.000000000000000    
_COSMOEDS=  0.000000000000000    
_COSMOEC=  0.000000000000000    
_COSMOEDCORR=  0.000000000000000    
_FEPSI=  1.000000000000000    
_SL_IsMM=  0.000000000000000    
_SL_NSYM=  2.000000000000000    
_SL_System_BitSw=  0.000000000000000    
_SL_Unique_atoms=  0.000000000000000    
_SL_GRAD=  0.000000000000000    
_SL_MAXUPD_Hess=  5.000000000000000    
_SL_N_PRINT_COD=  5.000000000000000    
_SL_PRINT_CODES=  0.000000000000000    
_SL_BasType=  0.000000000000000    
_SL_Energy_Pred=  0.000000000000000    
_SL_New_Coords=  0.000000000000000    
_SL_Total_Nuclea=  0.000000000000000    
_SL_Highest_Mltp=  0.000000000000000    
_SL_Ref_Geom=  0.000000000000000    
_SL_Symmetry_ope=  13.00000000000000    
_SL_agrad=  0.000000000000000    
_SL_GrdMax=  0.000000000000000    
_SL_GrdNorm=  0.000000000000000    
_SL_GrdRMS=  0.000000000000000    
_SL_Hss_Q=  0.000000000000000    
_SL_Hss_X=  0.000000000000000    
_SL_BMxOld=  0.000000000000000    
_SL_KtB=  0.000000000000000    
_SL_TROld=  0.000000000000000    
_SL_No_of_Intern=  0.000000000000000    
_SL_Hess=  0.000000000000000    
_SL_K=  0.000000000000000    
!LATTICE= -1.000000000000000    
!NEWLATTICE=  0.000000000000000    
!LATGRAD_VAR=FALSE
!SEW_LATTICE=  1.000000000000000    
!AIC_ONEEL=  0.000000000000000    
!LOCAL=  0.000000000000000    
!SAVEDOM= -1.000000000000000    
!RESTDOM= -1.000000000000000    
!SAVEDOM_HF= -1.000000000000000    
!RESTDOM_HF= -1.000000000000000    
!HESSREC=  5300.200000000000    
!FREQREC=  5400.200000000000    
!NMODREC=  5450.200000000000    
!GTASKS=  0.000000000000000    
!HTASKS=  0.000000000000000    
!SAVEDOM_EOM= -1.000000000000000    
!RESTDOM_EOM= -1.000000000000000    
!GRADSTATE= -1.000000000000000    
!DEBUG=  0.000000000000000    
!CFIT_CPHF=  0.000000000000000    
!RDOMAUX_CPHF=  0.000000000000000    
!THRAO_CPHF= 0.1000000000000000E-11
!THRMO_CPHF= 0.1000000000000000E-11
!THROV_CPHF= 0.1000000000000000E-13
!THRSW_CPHF= 0.1000000000000000E-11
!THRPROD_CPHF= 0.1000000000000000E-11
!THRAOPR_CPHF= 0.1000000000000000E-11
!CFIT_SCFGRD=  0.000000000000000    
!RDOMAUX_SCFGRD=  0.000000000000000    
!THRAO_SCFGRD= 0.1000000000000000E-11
!THRMO_SCFGRD= 0.1000000000000000E-11
!THROV_SCFGRD= 0.1000000000000000E-13
!THRSW_SCFGRD= 0.1000000000000000E-11
!THRPROD_SCFGRD= 0.1000000000000000E-11
!THRAOPR_SCFGRD= 0.1000000000000000E-11
!LOCFIT_SCF=  0.000000000000000    
!LOCFIT_MP2=  0.000000000000000    
_RIDOM=  0.000000000000000    
!CC2_METHOD=  0.000000000000000    
_BASIS2006=FALSE
_SVDDEL= -1.000000000000000    
_SVDDELA= -1.000000000000000    
_SVDDELP= -1.000000000000000    
_SVDDELF= -1.000000000000000    
_SVDDELS= -1.000000000000000    
_SVDDEL_ABS= -1.000000000000000    
_SVDDELA_ABS= -1.000000000000000    
_SVDDELP_ABS= -1.000000000000000    
_SVDDELF_ABS= -1.000000000000000    
_SVDDELS_ABS= -1.000000000000000    
_MAXBASIS=  0.000000000000000    
!OPT_CONICAL=  0.000000000000000    
!CLEARSP_JGRID=  0.000000000000000    
_GRDHYBR=  0.000000000000000    
_STATEGRAD=  1.000000000000000    
_4EXT_NDISKS=  1.000000000000000    
!EMBEDFLAG=  1.000000000000000    
!EMBED=FALSE
!EMBED_F12=FALSE
!EMBEDNUC=  0.000000000000000    
_EMBEDENERGY=  0.000000000000000    
!EMBED_DFC=FALSE
!NUM_VOIDS=  0.000000000000000    
_IBODY=  0.000000000000000    
_EMBE_CORR=  0.000000000000000    
!EMBED_PROJ=FALSE
!EMB_PROJ_ZMU=  1000000.000000000    
!CORRECTION_HF=  0.000000000000000    
!EMBED_AORB=  0.000000000000000    
!EMBED_NACORR=  0.000000000000000    
!EMBED_MP2=FALSE
!EMBED_TRUNC_PERTURBATION=FALSE
!EMBED_FROZEN=  0.000000000000000    
!EMBED_ACTIVE=  0.000000000000000    
_CHANGE_BASIS=FALSE
_RESTORE_BASIS=FALSE
_FIX_EMBED_GUESS=FALSE
_EMBED_SCF=FALSE
_NEOBAS=FALSE
_NEOOVE=FALSE
_PRINEO=FALSE
_HUZINAGA_T=FALSE
_HUZINAGA_F=FALSE
_HUZINAGA=FALSE
_HUZINAGA_CORRECT=FALSE
!FASTLATGRAD=  1.000000000000000    
!FASTVLAMBDA= -1.000000000000000    
!IFORCE= -1.000000000000000    
!USESYM= -1.000000000000000    
_SINDEX=  0.000000000000000    
_AVDOM_OSV=  0.000000000000000    
_AVDOM_PNO=  0.000000000000000    
_AVDOM_PNOCC=  0.000000000000000    
_AVDOM_TNO=  0.000000000000000    
_AVDOM_TNOIT=  0.000000000000000    
_AVDOM_PAO=  0.000000000000000    
_AVDOM_LMO=  0.000000000000000    
_CC2OSV_FLAG=  0.000000000000000    
_EOMCCSD_CONV=FALSE
_TMADC2_FLAG=FALSE
_PROPADC2_FLAG=FALSE
_LEN_VirQ=  0.000000000000000    
_GRDCC2LR_FLAG=FALSE
_GRDADC2_FLAG=FALSE
_RO_VGLOBAL=  0.000000000000000    
_OPT=FALSE
_FREQ=FALSE
_HESS=FALSE
_CMRCC_callName=EMPTY
_CMRCC_callCount=  0.000000000000000    
_GECCO_CIROOT=  1.000000000000000    
_SYM_CATION=  2.000000000000000    
_MON_A=FALSE
_MON_B=FALSE
_MAXGEOM=  100.0000000000000    
!MAXGEOM=  100.0000000000000    
_NCORE=  0.000000000000000    
_NLARGECORE=  0.000000000000000    
GX1=-0.2297022414070794    
GY1=  0.000000000000000    
GZ1=  1.253668737825526    
GX2= 0.5311857613711087    
GY2=  0.000000000000000    
GZ2=-0.6151505826556641E-01
GX3=-0.2947534293559254    
GY3=  0.000000000000000    
GZ3= -1.174910000172836    
GX4=  1.176132228578534    
GY4= 0.8723173000504053    
GZ4=-0.1492840140576892    
GX5=  1.176132228578534    
GY5=-0.8723173000504053    
GZ5=-0.1492840140576892    
GX6= 0.4590044295120953    
GY6=  0.000000000000000    
GZ6=  2.094228720230277    
GX7=-0.8615160025482181    
GY7= 0.8791896799740583    
GZ7=  1.328119375444290    
GX8=-0.8615160025482181    
GY8=-0.8791896799740583    
GZ8=  1.328119375444290    
CX1=-0.4340743264720534    
CY1=  0.000000000000000    
CZ1=  2.369090565495512    
CX2=  1.003795610292215    
CY2=  0.000000000000000    
CZ2=-0.1162466126623173    
OX3=-0.5570032557769287    
OY3=  0.000000000000000    
OZ3= -2.220258121410676    
HX4=  2.222567798359183    
HY4=  1.648440790868268    
HZ4=-0.2821059013538162    
HX5=  2.222567798359183    
HY5= -1.648440790868268    
HZ5=-0.2821059013538162    
HX6= 0.8673926617679544    
HY6=  0.000000000000000    
HZ6=  3.957518723560747    
HX7= -1.628029296798529    
HY7=  1.661427706748348    
HZ7=  2.509781880398736    
HX8= -1.628029296798529    
HY8= -1.661427706748348    
HZ8=  2.509781880398736    
[Atoms] Angs
C     1    6        -0.2297022414        0.0000000000        1.2536687378
C     2    6         0.5311857614        0.0000000000       -0.0615150583
O     3    8        -0.2947534294        0.0000000000       -1.1749100002
H     4    1         1.1761322286        0.8723173001       -0.1492840141
H     5    1         1.1761322286       -0.8723173001       -0.1492840141
H     6    1         0.4590044295        0.0000000000        2.0942287202
H     7    1        -0.8615160025        0.8791896800        1.3281193754
H     8    1        -0.8615160025       -0.8791896800        1.3281193754
[GTO]
   1 0
 s    6  1.00
  0.4563240000D+04  0.1966650249D-02
  0.6820240000D+03  0.1523060193D-01
  0.1549730000D+03  0.7612690966D-01
  0.4445530000D+02  0.2608010331D+00
  0.1302900000D+02  0.6164620782D+00
  0.1827730000D+01  0.2210060280D+00
 s    3  1.00
  0.2096420000D+02  0.1146600807D+00
  0.4803310000D+01  0.9199996477D+00
  0.1459330000D+01 -0.3030682134D-02
 s    1  1.00
  0.4834560000D+00  0.1000000000D+01
 s    1  1.00
  0.1455850000D+00  0.1000000000D+01
 p    3  1.00
  0.2096420000D+02  0.4024869267D-01
  0.4803310000D+01  0.2375939567D+00
  0.1459330000D+01  0.8158538515D+00
 p    1  1.00
  0.4834560000D+00  0.1000000000D+01
 p    1  1.00
  0.1455850000D+00  0.1000000000D+01
 d    1  1.00
  0.6260000000D+00  0.1000000000D+01
  
   2 0
 s    6  1.00
  0.4563240000D+04  0.1966650249D-02
  0.6820240000D+03  0.1523060193D-01
  0.1549730000D+03  0.7612690966D-01
  0.4445530000D+02  0.2608010331D+00
  0.1302900000D+02  0.6164620782D+00
  0.1827730000D+01  0.2210060280D+00
 s    3  1.00
  0.2096420000D+02  0.1146600807D+00
  0.4803310000D+01  0.9199996477D+00
  0.1459330000D+01 -0.3030682134D-02
 s    1  1.00
  0.4834560000D+00  0.1000000000D+01
 s    1  1.00
  0.1455850000D+00  0.1000000000D+01
 p    3  1.00
  0.2096420000D+02  0.4024869267D-01
  0.4803310000D+01  0.2375939567D+00
  0.1459330000D+01  0.8158538515D+00
 p    1  1.00
  0.4834560000D+00  0.1000000000D+01
 p    1  1.00
  0.1455850000D+00  0.1000000000D+01
 d    1  1.00
  0.6260000000D+00  0.1000000000D+01
  
   3 0
 s    6  1.00
  0.8588500000D+04  0.1895150083D-02
  0.1297230000D+04  0.1438590063D-01
  0.2992960000D+03  0.7073200310D-01
  0.8737710000D+02  0.2400010105D+00
  0.2567890000D+02  0.5947970261D+00
  0.3740040000D+01  0.2808020123D+00
 s    3  1.00
  0.4211750000D+02  0.1138890124D+00
  0.9628370000D+01  0.9208111006D+00
  0.2853320000D+01 -0.3274470358D-02
 s    1  1.00
  0.9056610000D+00  0.1000000000D+01
 s    1  1.00
  0.2556110000D+00  0.1000000000D+01
 p    3  1.00
  0.4211750000D+02  0.3651139738D-01
  0.9628370000D+01  0.2371529830D+00
  0.2853320000D+01  0.8197019412D+00
 p    1  1.00
  0.9056610000D+00  0.1000000000D+01
 p    1  1.00
  0.2556110000D+00  0.1000000000D+01
 d    1  1.00
  0.1292000000D+01  0.1000000000D+01
  
   4 0
 s    3  1.00
  0.3386500000D+02  0.2549381454D-01
  0.5094790000D+01  0.1903731086D+00
  0.1158790000D+01  0.8521614860D+00
 s    1  1.00
  0.3258400000D+00  0.1000000000D+01
 s    1  1.00
  0.1027410000D+00  0.1000000000D+01
 p    1  1.00
  0.7500000000D+00  0.1000000000D+01
  
   5 0
 s    3  1.00
  0.3386500000D+02  0.2549381454D-01
  0.5094790000D+01  0.1903731086D+00
  0.1158790000D+01  0.8521614860D+00
 s    1  1.00
  0.3258400000D+00  0.1000000000D+01
 s    1  1.00
  0.1027410000D+00  0.1000000000D+01
 p    1  1.00
  0.7500000000D+00  0.1000000000D+01
  
   6 0
 s    3  1.00
  0.3386500000D+02  0.2549381454D-01
  0.5094790000D+01  0.1903731086D+00
  0.1158790000D+01  0.8521614860D+00
 s    1  1.00
  0.3258400000D+00  0.1000000000D+01
 s    1  1.00
  0.1027410000D+00  0.1000000000D+01
 p    1  1.00
  0.7500000000D+00  0.1000000000D+01
  
   7 0
 s    3  1.00
  0.3386500000D+02  0.2549381454D-01
  0.5094790000D+01  0.1903731086D+00
  0.1158790000D+01  0.8521614860D+00
 s    1  1.00
  0.3258400000D+00  0.1000000000D+01
 s    1  1.00
  0.1027410000D+00  0.1000000000D+01
 p    1  1.00
  0.7500000000D+00  0.1000000000D+01
  
   8 0
 s    3  1.00
  0.3386500000D+02  0.2549381454D-01
  0.5094790000D+01  0.1903731086D+00
  0.1158790000D+01  0.8521614860D+00
 s    1  1.00
  0.3258400000D+00  0.1000000000D+01
 s    1  1.00
  0.1027410000D+00  0.1000000000D+01
 p    1  1.00
  0.7500000000D+00  0.1000000000D+01


[MO]
 Sym=      1.1
 Ene=     -20.5868
 Spin= Alpha
 Occup=    2.000000
1 0.000001512482511
2 -0.000000671672762
3 -0.000000749871645
4 -0.000016492164619
5 -0.000001668404601
6 0.0
7 0.000002014380567
8 -0.000009618203462
9 0.0
10 0.000005865992689
11 -0.000009464428969
12 0.0
13 -0.000004447586922
14 0.000002053291454
15 0.000007834114383
16 -0.000009887405837
17 0.0
18 -0.000023860407780
19 0.0
20 -0.000002162783403
21 -0.000034252174992
22 0.000076767820077
23 0.000522160039414
24 -0.000020388236770
25 0.0
26 -0.000016383103369
27 -0.000159200236651
28 0.0
29 -0.000243498319468
30 -0.000143595411206
31 0.0
32 -0.000221473021373
33 0.000003924051570
34 -0.000086885844654
35 0.000082961793084
36 0.0
37 0.000145253400659
38 0.0
39 0.55149222969561
40 0.47175858940047
41 0.005275093389478
42 -0.000722911232743
43 0.000846980877028
44 0.0
45 0.001190015017844
46 -0.000314260564558
47 0.0
48 -0.000440826148752
49 -0.000072265950267
50 0.0
51 -0.000087412244938
52 0.000152018232678
53 -0.000219968823740
54 0.000067950591062
55 0.0
56 -0.000157119397592
57 0.0
58 0.000023783377775
59 -0.000081718546722
60 -0.000009398378202
61 0.000005695889148
62 -0.000011765796654
63 0.000026298005255
64 0.000023783377775
65 -0.000081718546722
66 -0.000009398378202
67 0.000005695889148
68 0.000011765796654
69 0.000026298005255
70 0.000003960286327
71 0.000024126601085
72 0.000031826628842
73 -0.000005061451910
74 0.0
75 -0.000016187518268
76 0.000009575248832
77 -0.000050476933653
78 0.000002737667783
79 -0.000010771349353
80 0.000009593074988
81 0.000013508730504
82 0.000009575248832
83 -0.000050476933653
84 0.000002737667783
85 -0.000010771349353
86 -0.000009593074988
87 0.000013508730504
 Sym=      2.1
 Ene=     -11.2819
 Spin= Alpha
 Occup=    2.000000
1 0.002803535531275
2 0.002268253682828
3 0.000243659210534
4 0.000623176340275
5 0.000077850077579
6 0.0
7 -0.000112108217843
8 0.000109336922462
9 0.0
10 -0.000256052604736
11 0.000173012257835
12 0.0
13 -0.000271269224672
14 -0.000036997213827
15 -0.000059839567650
16 0.000096836781477
17 0.0
18 -0.000076015100431
19 0.0
20 0.56343155669534
21 0.46654799443464
22 0.004199224571134
23 -0.001959822761678
24 -0.000547642422822
25 0.0
26 -0.000724150753906
27 0.000458908589453
28 0.0
29 0.000443427215613
30 0.000057963590931
31 0.0
32 -0.000255827545540
33 -0.000018869712833
34 0.000170234756941
35 -0.000151365044108
36 0.0
37 -0.000152127059135
38 0.0
39 -0.000077853962404
40 -0.000136909810079
41 0.000298804097139
42 0.000511255358996
43 0.000081242966930
44 0.0
45 0.000109604122045
46 0.000323098192866
47 0.0
48 0.000430266357857
49 0.000092361277643
50 0.0
51 0.000195276098455
52 -0.000002840038328
53 -0.000106857555038
54 0.000109697593366
55 0.0
56 0.000181224521543
57 0.0
58 0.000326867150894
59 0.000191225366802
60 0.000282096317408
61 -0.000027134642668
62 0.000013339950768
63 -0.000012635150720
64 0.000326867150894
65 0.000191225366802
66 0.000282096317408
67 -0.000027134642668
68 -0.000013339950768
69 -0.000012635150720
70 0.000002228981383
71 -0.000008034536965
72 0.000003638639027
73 0.000004977622835
74 0.0
75 -0.000024850754530
76 -0.000001315591928
77 -0.000015005490575
78 0.000023665751663
79 0.000009309274541
80 -0.000007822352862
81 -0.000007940541847
82 -0.000001315591928
83 -0.000015005490575
84 0.000023665751663
85 0.000009309274541
86 0.000007822352862
87 -0.000007940541847
 Sym=      3.1
 Ene=     -11.2194
 Spin= Alpha
 Occup=    2.000000
1 0.56331239880458
2 0.46652973669093
3 0.004540466429587
4 -0.001740604627118
5 0.000052586237521
6 0.0
7 0.000049153676233
8 -0.000076411610896
9 0.0
10 0.000022551306593
11 -0.000083501560758
12 0.0
13 0.000207304989207
14 0.000006516132367
15 0.000044552567121
16 -0.000051068699488
17 0.0
18 0.000047660606127
19 0.0
20 -0.002902556821705
21 -0.002464030123197
22 0.000233007659505
23 0.000596772101575
24 -0.000077020480219
25 0.0
26 0.000121147835933
27 -0.000141196935313
28 0.0
29 0.000262673621631
30 -0.000136402075811
31 0.0
32 0.000234601982745
33 -0.000021116721205
34 -0.000059186032710
35 0.000080302753915
36 0.0
37 -0.000101613251563
38 0.0
39 0.000002725647503
40 0.000005069582204
41 -0.000020723376154
42 -0.000003799007869
43 0.000000629949282
44 0.0
45 -0.000008945429274
46 0.000013322684549
47 0.0
48 -0.000019764231074
49 0.000004120005076
50 0.0
51 0.000007835379049
52 -0.000000166700213
53 -0.000004518428542
54 0.000004685128755
55 0.0
56 0.000002458579557
57 0.0
58 -0.000002710244294
59 -0.000040962207139
60 0.000010329632103
61 -0.000005290097796
62 -0.000001490469334
63 0.000005641733807
64 -0.000002710244294
65 -0.000040962207139
66 0.000010329632103
67 -0.000005290097796
68 0.000001490469334
69 0.000005641733807
70 0.000358901334208
71 0.000193145440927
72 0.000210132999349
73 0.000001424251534
74 0.0
75 -0.000030182556831
76 0.000352767776267
77 0.000172625716854
78 0.000244607630208
79 0.000011306697878
80 0.000000899037941
81 -0.000016550084139
82 0.000352767776267
83 0.000172625716854
84 0.000244607630208
85 0.000011306697878
86 -0.000000899037941
87 -0.000016550084139
 Sym=      4.1
 Ene=      -1.3276
 Spin= Alpha
 Occup=    2.000000
1 -0.010678961540679
2 -0.017577262280494
3 0.042811494055879
4 0.035758637114284
5 0.002300893439313
6 0.0
7 -0.009200918608969
8 0.009136852930264
9 0.0
10 -0.026073974803523
11 0.003517259874730
12 0.0
13 -0.010509237659655
14 -0.002719223170210
15 -0.002833945180429
16 0.005553168350638
17 0.0
18 -0.005847614420791
19 0.0
20 -0.048615106672498
21 -0.079979795223903
22 0.20610833788955
23 0.002431033621189
24 -0.028546123066376
25 0.0
26 -0.038618386387254
27 -0.062344139373985
28 0.0
29 -0.069201361151418
30 0.008380589451378
31 0.0
32 0.005277347527832
33 0.000810468311652
34 -0.016142455159836
35 0.015331986848184
36 0.0
37 0.025234542509568
38 0.0
39 -0.10882781925495
40 -0.18230840518521
41 0.52711565697776
42 0.41331205046123
43 0.024573926202954
44 0.0
45 0.033580529243258
46 0.041777964698818
47 0.0
48 0.057858570781082
49 0.026402586829096
50 0.0
51 0.035167231879714
52 0.000820174280390
53 -0.006548267867791
54 0.005728093587400
55 0.0
56 0.008711308714368
57 0.0
58 0.021720696417966
59 0.042791618088263
60 -0.003068973136972
61 -0.007035138550327
62 -0.008849249141933
63 0.000145900594330
64 0.021720696417966
65 0.042791618088263
66 -0.003068973136972
67 -0.007035138550327
68 0.008849249141933
69 0.000145900594330
70 0.004075818185589
71 0.005739713991874
72 -0.003290058925773
73 -0.001799203110888
74 0.0
75 -0.001991326355542
76 0.005422532081450
77 0.007205790472184
78 -0.000301140410681
79 0.001361880322282
80 -0.002173642715956
81 -0.000876524117330
82 0.005422532081450
83 0.007205790472184
84 -0.000301140410681
85 0.001361880322282
86 0.002173642715956
87 -0.000876524117330
 Sym=      5.1
 Ene=      -1.0085
 Spin= Alpha
 Occup=    2.000000
1 -0.086442460766275
2 -0.14249472810200
3 0.36058230891594
4 0.19055810319161
5 0.012041626309866
6 0.0
7 -0.014204631371751
8 0.028020345273045
9 0.0
10 -0.034848779917878
11 0.005877576576311
12 0.0
13 0.004877539438952
14 0.000347858071199
15 -0.004635258023325
16 0.004287399952126
17 0.0
18 -0.006878634919186
19 0.0
20 -0.056138818571695
21 -0.093262909325178
22 0.24368266149139
23 0.16142895531097
24 0.001941799023311
25 0.0
26 0.054197495729176
27 -0.011199243157202
28 0.0
29 0.091902201308109
30 -0.003938479810087
31 0.0
32 0.031309841765407
33 -0.001605323020449
34 -0.001930016868399
35 0.003535339888848
36 0.0
37 -0.017127712452954
38 0.0
39 0.038147815713893
40 0.064227748544862
41 -0.18875632454299
42 -0.18761110349121
43 0.008766778639328
44 0.0
45 0.024929653995299
46 0.013186318465627
47 0.0
48 0.038900587886993
49 0.007398874278847
50 0.0
51 0.018322176329494
52 -0.001264954423945
53 -0.001455275154789
54 0.002720229578733
55 0.0
56 0.002303042975198
57 0.0
58 0.042062700282464
59 0.054880519347536
60 -0.003859624025621
61 -0.006282112354782
62 -0.009034531853673
63 0.002718177832724
64 0.042062700282464
65 0.054880519347536
66 -0.003859624025621
67 -0.006282112354782
68 0.009034531853673
69 0.002718177832724
70 0.065323765599423
71 0.086312534120141
72 -0.001338932043125
73 -0.009865678683339
74 0.0
75 -0.013404515122014
76 0.061754027715654
77 0.086043177320377
78 -0.001653223005567
79 0.010107027056167
80 -0.013174972331343
81 -0.001842159851137
82 0.061754027715654
83 0.086043177320377
84 -0.001653223005567
85 0.010107027056167
86 0.013174972331343
87 -0.001842159851137
 Sym=      6.1
 Ene=      -0.8393
 Spin= Alpha
 Occup=    2.000000
1 0.052971095945452
2 0.087638676346066
3 -0.22013412842756
4 -0.18256168969352
5 0.034099807997001
6 0.0
7 -0.040772053661890
8 0.057351978972397
9 0.0
10 -0.069726032248162
11 0.016580643734055
12 0.0
13 -0.015781180793053
14 -0.000222361125374
15 -0.008505732254868
16 0.008728093380242
17 0.0
18 -0.012381567790531
19 0.0
20 -0.069607902739623
21 -0.11631667975019
22 0.30786688304669
23 0.22472899064500
24 0.061053379186914
25 0.0
26 -0.020577928745854
27 0.087185137719702
28 0.0
29 -0.047461659083419
30 0.041034312888513
31 0.0
32 0.005435639192744
33 -0.002478607913093
34 0.011162558284124
35 -0.008683950371031
36 0.0
37 0.005622336669182
38 0.0
39 0.035032717098244
40 0.059153284157911
41 -0.17536416028283
42 -0.19974499947141
43 0.062667061526313
44 0.0
45 0.042255100524314
46 0.097381727893631
47 0.0
48 0.064185783837562
49 0.064824417621527
50 0.0
51 0.041474982021623
52 0.003020795680684
53 -0.003695534628096
54 0.000674738947413
55 0.0
56 0.008311333918428
57 0.0
58 0.087549771103661
59 0.12585518464529
60 0.009495700920540
61 -0.008126335235533
62 -0.015659173616202
63 0.001007027082598
64 0.087549771103661
65 0.12585518464529
66 0.009495700920540
67 -0.008126335235533
68 0.015659173616202
69 0.001007027082598
70 -0.054416434899185
71 -0.075772429615159
72 -0.011167011021850
73 0.008239049215658
74 0.0
75 0.006807575332676
76 -0.063333286087314
77 -0.084153862259894
78 -0.013154191858997
79 -0.005731160155546
80 0.009993847452925
81 -0.001027828077284
82 -0.063333286087314
83 -0.084153862259894
84 -0.013154191858997
85 -0.005731160155546
86 -0.009993847452925
87 -0.001027828077284
 Sym=      1.2
 Ene=      -0.6405
 Spin= Alpha
 Occup=    2.000000
1 0.0
2 0.0
3 0.0
4 0.0
5 0.0
6 0.10667874956253
7 0.0
8 0.0
9 0.17248309957761
10 0.0
11 0.0
12 0.10158936366977
13 0.0
14 0.0
15 0.0
16 0.0
17 -0.010355985269420
18 0.0
19 -0.008135592263107
20 0.0
21 0.0
22 0.0
23 0.0
24 0.0
25 0.15983518889448
26 0.0
27 0.0
28 0.26347411203356
29 0.0
30 0.0
31 0.15735060883774
32 0.0
33 0.0
34 0.0
35 0.0
36 0.019043429796951
37 0.0
38 -0.002878258241409
39 0.0
40 0.0
41 0.0
42 0.0
43 0.0
44 0.030275816408824
45 0.0
46 0.0
47 0.051983967957955
48 0.0
49 0.0
50 0.017672033255809
51 0.0
52 0.0
53 0.0
54 0.0
55 0.005673626887930
56 0.0
57 0.007157510885841
58 0.10798642233116
59 0.16196173912870
60 0.047600963282754
61 -0.010182592251128
62 -0.006069804734012
63 0.002449747470712
64 -0.10798642233116
65 -0.16196173912870
66 -0.047600963282754
67 0.010182592251128
68 -0.006069804734012
69 -0.002449747470712
70 0.0
71 0.0
72 0.0
73 0.0
74 0.005837607599140
75 0.0
76 0.071695862185591
77 0.10417766572470
78 0.025978899758100
79 0.007371722984864
80 -0.004477920524567
81 -0.000402257251721
82 -0.071695862185591
83 -0.10417766572470
84 -0.025978899758100
85 -0.007371722984864
86 -0.004477920524567
87 0.000402257251721
 Sym=      7.1
 Ene=      -0.6350
 Spin= Alpha
 Occup=    2.000000
1 0.004534390529434
2 0.007412642674409
3 -0.014472631749087
4 -0.040540406548339
5 -0.050507815212688
6 0.0
7 -0.091386927537061
8 -0.076418863418920
9 0.0
10 -0.14943207853849
11 -0.057301933699181
12 0.0
13 -0.074235984352909
14 -0.007782872798282
15 0.004223369088817
16 0.003559503709465
17 0.0
18 -0.015011006315146
19 0.0
20 -0.010753556835174
21 -0.018832167149117
22 0.059741048954667
23 0.017083715881250
24 -0.12492166920638
25 0.0
26 -0.007690540478960
27 -0.22185308571241
28 0.0
29 -0.023934658012996
30 -0.10482651043354
31 0.0
32 0.028852278626528
33 0.016819415763508
34 -0.022125595781055
35 0.005306180017546
36 0.0
37 0.016454899605012
38 0.0
39 0.020103281395495
40 0.033978845556484
41 -0.10087297958130
42 -0.14936980437956
43 -0.015756672141264
44 0.0
45 0.18077466874765
46 -0.027741396908676
47 0.0
48 0.27731160256397
49 -0.024157011902471
50 0.0
51 0.22539848014253
52 -0.008154276376176
53 -0.006643717013602
54 0.014797993389778
55 0.0
56 0.007145923139924
57 0.0
58 -0.051528714253532
59 -0.064485911315453
60 -0.031014201217159
61 -0.002718243093272
62 0.004210778057546
63 -0.001322852699989
64 -0.051528714253532
65 -0.064485911315453
66 -0.031014201217159
67 -0.002718243093272
68 -0.004210778057546
69 -0.001322852699989
70 -0.091319989128131
71 -0.13694743331565
72 -0.044030987829644
73 0.006513805725152
74 0.0
75 0.008148741028743
76 0.013624519626051
77 0.023608838567428
78 0.003317774440652
79 -0.000759407084403
80 -0.002510398345872
81 -0.005939733114929
82 0.013624519626051
83 0.023608838567428
84 0.003317774440652
85 -0.000759407084403
86 0.002510398345872
87 -0.005939733114929
 Sym=      8.1
 Ene=      -0.5903
 Spin= Alpha
 Occup=    2.000000
1 -0.004989451566286
2 -0.008296784395414
3 0.016468387112297
4 0.050069645165800
5 -0.090458267361760
6 0.0
7 0.083140088468593
8 -0.14664589294374
9 0.0
10 0.12877016304267
11 -0.076081110018277
12 0.0
13 0.079617149668992
14 -0.002660271479616
15 0.014512646684790
16 -0.011852375205174
17 0.0
18 0.013226780634579
19 0.0