 Entering Gaussian System, Link 0=g16
 Input=/home/lme/Theoretische_Chemie/Nomodeco/Gaussian_Imp_Rechnungen/h2o/h2o_gaussian.gjf
 Output=/home/lme/Theoretische_Chemie/Nomodeco/Gaussian_Imp_Rechnungen/h2o/h2o_gaussian.log
 Initial command:
 /usr/local/g16/l1.exe "/scratch/lme/Gau-825070.inp" -scrdir="/scratch/lme/"
 Entering Link 1 = /usr/local/g16/l1.exe PID=    825073.
  
 Copyright (c) 1988,1990,1992,1993,1995,1998,2003,2009,2016,
            Gaussian, Inc.  All Rights Reserved.
  
 This is part of the Gaussian(R) 16 program.  It is based on
 the Gaussian(R) 09 system (copyright 2009, Gaussian, Inc.),
 the Gaussian(R) 03 system (copyright 2003, Gaussian, Inc.),
 the Gaussian(R) 98 system (copyright 1998, Gaussian, Inc.),
 the Gaussian(R) 94 system (copyright 1995, Gaussian, Inc.),
 the Gaussian 92(TM) system (copyright 1992, Gaussian, Inc.),
 the Gaussian 90(TM) system (copyright 1990, Gaussian, Inc.),
 the Gaussian 88(TM) system (copyright 1988, Gaussian, Inc.),
 the Gaussian 86(TM) system (copyright 1986, Carnegie Mellon
 University), and the Gaussian 82(TM) system (copyright 1983,
 Carnegie Mellon University). Gaussian is a federally registered
 trademark of Gaussian, Inc.
  
 This software contains proprietary and confidential information,
 including trade secrets, belonging to Gaussian, Inc.
  
 This software is provided under written license and may be
 used, copied, transmitted, or stored only in accord with that
 written license.
  
 The following legend is applicable only to US Government
 contracts under FAR:
  
                    RESTRICTED RIGHTS LEGEND
  
 Use, reproduction and disclosure by the US Government is
 subject to restrictions as set forth in subparagraphs (a)
 and (c) of the Commercial Computer Software - Restricted
 Rights clause in FAR 52.227-19.
  
 Gaussian, Inc.
 340 Quinnipiac St., Bldg. 40, Wallingford CT 06492
  
  
 ---------------------------------------------------------------
 Warning -- This program may not be used in any manner that
 competes with the business of Gaussian, Inc. or will provide
 assistance to any competitor of Gaussian, Inc.  The licensee
 of this program is prohibited from giving any competitor of
 Gaussian, Inc. access to this program.  By using this program,
 the user acknowledges that Gaussian, Inc. is engaged in the
 business of creating and licensing software in the field of
 computational chemistry and represents and warrants to the
 licensee that it is not a competitor of Gaussian, Inc. and that
 it will not use this program in any manner prohibited above.
 ---------------------------------------------------------------
  

 Cite this work as:
 Gaussian 16, Revision A.03,
 M. J. Frisch, G. W. Trucks, H. B. Schlegel, G. E. Scuseria, 
 M. A. Robb, J. R. Cheeseman, G. Scalmani, V. Barone, 
 G. A. Petersson, H. Nakatsuji, X. Li, M. Caricato, A. V. Marenich, 
 J. Bloino, B. G. Janesko, R. Gomperts, B. Mennucci, H. P. Hratchian, 
 J. V. Ortiz, A. F. Izmaylov, J. L. Sonnenberg, D. Williams-Young, 
 F. Ding, F. Lipparini, F. Egidi, J. Goings, B. Peng, A. Petrone, 
 T. Henderson, D. Ranasinghe, V. G. Zakrzewski, J. Gao, N. Rega, 
 G. Zheng, W. Liang, M. Hada, M. Ehara, K. Toyota, R. Fukuda, 
 J. Hasegawa, M. Ishida, T. Nakajima, Y. Honda, O. Kitao, H. Nakai, 
 T. Vreven, K. Throssell, J. A. Montgomery, Jr., J. E. Peralta, 
 F. Ogliaro, M. J. Bearpark, J. J. Heyd, E. N. Brothers, K. N. Kudin, 
 V. N. Staroverov, T. A. Keith, R. Kobayashi, J. Normand, 
 K. Raghavachari, A. P. Rendell, J. C. Burant, S. S. Iyengar, 
 J. Tomasi, M. Cossi, J. M. Millam, M. Klene, C. Adamo, R. Cammi, 
 J. W. Ochterski, R. L. Martin, K. Morokuma, O. Farkas, 
 J. B. Foresman, and D. J. Fox, Gaussian, Inc., Wallingford CT, 2016.
 
 ******************************************
 Gaussian 16:  ES64L-G16RevA.03 25-Dec-2016
                 9-Sep-2024 
 ******************************************
 %chk=h2o_gaussian.chk
 -------------------------------------
 # opt freq hf/3-21g geom=connectivity
 -------------------------------------
 1/18=20,19=15,38=1,57=2/1,3;
 2/9=110,12=2,17=6,18=5,40=1/2;
 3/5=5,11=9,25=1,30=1,71=1/1,2,3;
 4//1;
 5/5=2,38=5/2;
 6/7=2,8=2,9=2,10=2,28=1/1;
 7//1,2,3,16;
 1/18=20,19=15/3(2);
 2/9=110/2;
 99//99;
 2/9=110/2;
 3/5=5,11=9,25=1,30=1,71=1/1,2,3;
 4/5=5,16=3,69=1/1;
 5/5=2,38=5/2;
 7//1,2,3,16;
 1/18=20,19=15/3(-5);
 2/9=110/2;
 6/7=2,8=2,9=2,10=2,19=2,28=1/1;
 99/9=1/99;
 -------------------
 Title Card Required
 -------------------
 Symbolic Z-matrix:
 Charge =  0 Multiplicity = 1
 O                    -0.71429   0.65657   0. 
 H                     0.24571   0.65657   0. 
 H                    -1.03474   1.5615    0. 
 

 GradGradGradGradGradGradGradGradGradGradGradGradGradGradGradGradGradGrad
 Berny optimization.
 Initialization pass.
                           ----------------------------
                           !    Initial Parameters    !
                           ! (Angstroms and Degrees)  !
 --------------------------                            --------------------------
 ! Name  Definition              Value          Derivative Info.                !
 --------------------------------------------------------------------------------
 ! R1    R(1,2)                  0.96           estimate D2E/DX2                !
 ! R2    R(1,3)                  0.96           estimate D2E/DX2                !
 ! A1    A(2,1,3)              109.5            estimate D2E/DX2                !
 --------------------------------------------------------------------------------
 Trust Radius=3.00D-01 FncErr=1.00D-07 GrdErr=1.00D-07 EigMax=2.50D+02 EigMin=1.00D-04
 Number of steps in this run=     20 maximum allowed number of steps=    100.
 GradGradGradGradGradGradGradGradGradGradGradGradGradGradGradGradGradGrad

                          Input orientation:                          
 ---------------------------------------------------------------------
 Center     Atomic      Atomic             Coordinates (Angstroms)
 Number     Number       Type             X           Y           Z
 ---------------------------------------------------------------------
      1          8           0       -0.714286    0.656566    0.000000
      2          1           0        0.245714    0.656566    0.000000
      3          1           0       -1.034740    1.561501    0.000000
 ---------------------------------------------------------------------
                    Distance matrix (angstroms):
                    1          2          3
     1  O    0.000000
     2  H    0.960000   0.000000
     3  H    0.960000   1.567952   0.000000
 Stoichiometry    H2O
 Framework group  C2V[C2(O),SGV(H2)]
 Deg. of freedom     2
 Full point group                 C2V     NOp   4
 Largest Abelian subgroup         C2V     NOp   4
 Largest concise Abelian subgroup C2      NOp   2
                         Standard orientation:                         
 ---------------------------------------------------------------------
 Center     Atomic      Atomic             Coordinates (Angstroms)
 Number     Number       Type             X           Y           Z
 ---------------------------------------------------------------------
      1          8           0       -0.000000    0.000000    0.110812
      2          1           0       -0.000000    0.783976   -0.443248
      3          1           0       -0.000000   -0.783976   -0.443248
 ---------------------------------------------------------------------
 Rotational constants (GHZ):         919.6759688         407.9403309         282.5913776
 Standard basis: 3-21G (6D, 7F)
 There are     7 symmetry adapted cartesian basis functions of A1  symmetry.
 There are     0 symmetry adapted cartesian basis functions of A2  symmetry.
 There are     2 symmetry adapted cartesian basis functions of B1  symmetry.
 There are     4 symmetry adapted cartesian basis functions of B2  symmetry.
 There are     7 symmetry adapted basis functions of A1  symmetry.
 There are     0 symmetry adapted basis functions of A2  symmetry.
 There are     2 symmetry adapted basis functions of B1  symmetry.
 There are     4 symmetry adapted basis functions of B2  symmetry.
    13 basis functions,    21 primitive gaussians,    13 cartesian basis functions
     5 alpha electrons        5 beta electrons
       nuclear repulsion energy         9.1571160303 Hartrees.
 NAtoms=    3 NActive=    3 NUniq=    2 SFac= 2.25D+00 NAtFMM=   60 NAOKFM=F Big=F
 Integral buffers will be    131072 words long.
 Raffenetti 1 integral format.
 Two-electron integral symmetry is turned on.
 One-electron integrals computed using PRISM.
 NBasis=    13 RedAO= T EigKep=  1.10D-01  NBF=     7     0     2     4
 NBsUse=    13 1.00D-06 EigRej= -1.00D+00 NBFU=     7     0     2     4
 ExpMin= 1.83D-01 ExpMax= 3.22D+02 ExpMxC= 3.22D+02 IAcc=3 IRadAn=         5 AccDes= 0.00D+00
 Harris functional with IExCor=  205 and IRadAn=       5 diagonalized for initial guess.
 HarFok:  IExCor=  205 AccDes= 0.00D+00 IRadAn=         5 IDoV= 1 UseB2=F ITyADJ=14
 ICtDFT=  3500011 ScaDFX=  1.000000  1.000000  1.000000  1.000000
 FoFCou: FMM=F IPFlag=           0 FMFlag=      100000 FMFlg1=           0
         NFxFlg=           0 DoJE=T BraDBF=F KetDBF=T FulRan=T
         wScrn=  0.000000 ICntrl=       500 IOpCl=  0 I1Cent=   200000004 NGrid=           0
         NMat0=    1 NMatS0=      1 NMatT0=    0 NMatD0=    1 NMtDS0=    0 NMtDT0=    0
 Petite list used in FoFCou.
 Initial guess orbital symmetries:
       Occupied  (A1) (A1) (B2) (A1) (B1)
       Virtual   (A1) (B2) (B2) (A1) (B1) (A1) (B2) (A1)
 The electronic state of the initial guess is 1-A1.
 Keep R1 ints in memory in symmetry-blocked form, NReq=807464.
 Requested convergence on RMS density matrix=1.00D-08 within 128 cycles.
 Requested convergence on MAX density matrix=1.00D-06.
 Requested convergence on             energy=1.00D-06.
 No special actions if energy rises.
 SCF Done:  E(RHF) =  -75.5858099772     A.U. after   10 cycles
            NFock= 10  Conv=0.41D-09     -V/T= 2.0018

 **********************************************************************

            Population analysis using the SCF density.

 **********************************************************************

 Orbital symmetries:
       Occupied  (A1) (A1) (B2) (A1) (B1)
       Virtual   (A1) (B2) (B2) (A1) (B1) (A1) (B2) (A1)
 The electronic state is 1-A1.
 Alpha  occ. eigenvalues --  -20.42410  -1.32206  -0.69197  -0.52705  -0.47640
 Alpha virt. eigenvalues --    0.26331   0.36340   1.22115   1.27317   1.78510
 Alpha virt. eigenvalues --    1.85832   2.02914   3.10431
          Condensed to atoms (all electrons):
               1          2          3
     1  O    8.207310   0.266203   0.266203
     2  H    0.266203   0.401327  -0.037389
     3  H    0.266203  -0.037389   0.401327
 Mulliken charges:
               1
     1  O   -0.739717
     2  H    0.369859
     3  H    0.369859
 Sum of Mulliken charges =  -0.00000
 Mulliken charges with hydrogens summed into heavy atoms:
               1
     1  O   -0.000000
 Electronic spatial extent (au):  <R**2>=             18.5141
 Charge=             -0.0000 electrons
 Dipole moment (field-independent basis, Debye):
    X=             -0.0000    Y=              0.0000    Z=             -2.3573  Tot=              2.3573
 Quadrupole moment (field-independent basis, Debye-Ang):
   XX=             -6.8230   YY=             -3.8987   ZZ=             -5.9169
   XY=              0.0000   XZ=              0.0000   YZ=              0.0000
 Traceless Quadrupole moment (field-independent basis, Debye-Ang):
   XX=             -1.2768   YY=              1.6475   ZZ=             -0.3707
   XY=              0.0000   XZ=              0.0000   YZ=              0.0000
 Octapole moment (field-independent basis, Debye-Ang**2):
  XXX=              0.0000  YYY=             -0.0000  ZZZ=             -1.1675  XYY=             -0.0000
  XXY=             -0.0000  XXZ=             -0.3047  XZZ=             -0.0000  YZZ=             -0.0000
  YYZ=             -1.2161  XYZ=             -0.0000
 Hexadecapole moment (field-independent basis, Debye-Ang**3):
 XXXX=             -4.1844 YYYY=             -5.2792 ZZZZ=             -5.2029 XXXY=             -0.0000
 XXXZ=             -0.0000 YYYX=             -0.0000 YYYZ=              0.0000 ZZZX=             -0.0000
 ZZZY=              0.0000 XXYY=             -1.8470 XXZZ=             -1.6025 YYZZ=             -1.4919
 XXYZ=              0.0000 YYXZ=              0.0000 ZZXY=             -0.0000
 N-N= 9.157116030293D+00 E-N=-1.980498358042D+02  KE= 7.544716226440D+01
 Symmetry A1   KE= 6.747174405354D+01
 Symmetry A2   KE= 0.000000000000D+00
 Symmetry B1   KE= 4.650603185678D+00
 Symmetry B2   KE= 3.324815025174D+00
 Calling FoFJK, ICntrl=      2127 FMM=F ISym2X=1 I1Cent= 0 IOpClX= 0 NMat=1 NMatS=1 NMatT=0.
 ***** Axes restored to original set *****
 -------------------------------------------------------------------
 Center     Atomic                   Forces (Hartrees/Bohr)
 Number     Number              X              Y              Z
 -------------------------------------------------------------------
      1        8          -0.006301805   -0.008916848    0.000000000
      2        1           0.005483874    0.002809643   -0.000000000
      3        1           0.000817931    0.006107205   -0.000000000
 -------------------------------------------------------------------
 Cartesian Forces:  Max     0.008916848 RMS     0.004656619

 GradGradGradGradGradGradGradGradGradGradGradGradGradGradGradGradGradGrad
 Berny optimization.
 FormGI is forming the generalized inverse of G from B-inverse, IUseBI=4.
 Internal  Forces:  Max     0.005483874 RMS     0.005358045
 Search for a local minimum.
 Step number   1 out of a maximum of   20
 All quantities printed in internal units (Hartrees-Bohrs-Radians)
 Mixed Optimization -- RFO/linear search
 Second derivative matrix not updated -- first step.
 The second derivative matrix:
                          R1        R2        A1
           R1           0.55473
           R2           0.00000   0.55473
           A1           0.00000   0.00000   0.16000
 ITU=  0
     Eigenvalues ---    0.16000   0.55473   0.55473
 RFO step:  Lambda=-2.70471652D-04 EMin= 1.60000000D-01
 Linear search not attempted -- first point.
 Iteration  1 RMS(Cart)=  0.01547072 RMS(Int)=  0.00021186
 Iteration  2 RMS(Cart)=  0.00022725 RMS(Int)=  0.00000001
 Iteration  3 RMS(Cart)=  0.00000001 RMS(Int)=  0.00000000
 ClnCor:  largest displacement from symmetrization is 1.90D-15 for atom     3.
 Variable       Old X    -DE/DX   Delta X   Delta X   Delta X     New X
                                 (Linear)    (Quad)   (Total)
    R1        1.81414   0.00548   0.00000   0.00988   0.00988   1.82402
    R2        1.81414   0.00548   0.00000   0.00988   0.00988   1.82402
    A1        1.91114  -0.00510   0.00000  -0.03180  -0.03180   1.87933
         Item               Value     Threshold  Converged?
 Maximum Force            0.005484     0.000450     NO 
 RMS     Force            0.005358     0.000300     NO 
 Maximum Displacement     0.015927     0.001800     NO 
 RMS     Displacement     0.015573     0.001200     NO 
 Predicted change in Energy=-1.353992D-04
 GradGradGradGradGradGradGradGradGradGradGradGradGradGradGradGradGradGrad

                          Input orientation:                          
 ---------------------------------------------------------------------
 Center     Atomic      Atomic             Coordinates (Angstroms)
 Number     Number       Type             X           Y           Z
 ---------------------------------------------------------------------
      1          8           0       -0.720242    0.648137   -0.000000
      2          1           0        0.244864    0.663485   -0.000000
      3          1           0       -1.027934    1.563010    0.000000
 ---------------------------------------------------------------------
                    Distance matrix (angstroms):
                    1          2          3
     1  O    0.000000
     2  H    0.965229   0.000000
     3  H    0.965229   1.558576   0.000000
 Stoichiometry    H2O
 Framework group  C2V[C2(O),SGV(H2)]
 Deg. of freedom     2
 Full point group                 C2V     NOp   4
 Largest Abelian subgroup         C2V     NOp   4
 Largest concise Abelian subgroup C2      NOp   2
                         Standard orientation:                         
 ---------------------------------------------------------------------
 Center     Atomic      Atomic             Coordinates (Angstroms)
 Number     Number       Type             X           Y           Z
 ---------------------------------------------------------------------
      1          8           0        0.000000    0.000000    0.113908
      2          1           0       -0.000000    0.779288   -0.455632
      3          1           0       -0.000000   -0.779288   -0.455632
 ---------------------------------------------------------------------
 Rotational constants (GHZ):         870.3588977         412.8628851         280.0286672
 Standard basis: 3-21G (6D, 7F)
 There are     7 symmetry adapted cartesian basis functions of A1  symmetry.
 There are     0 symmetry adapted cartesian basis functions of A2  symmetry.
 There are     2 symmetry adapted cartesian basis functions of B1  symmetry.
 There are     4 symmetry adapted cartesian basis functions of B2  symmetry.
 There are     7 symmetry adapted basis functions of A1  symmetry.
 There are     0 symmetry adapted basis functions of A2  symmetry.
 There are     2 symmetry adapted basis functions of B1  symmetry.
 There are     4 symmetry adapted basis functions of B2  symmetry.
    13 basis functions,    21 primitive gaussians,    13 cartesian basis functions
     5 alpha electrons        5 beta electrons
       nuclear repulsion energy         9.1113699635 Hartrees.
 NAtoms=    3 NActive=    3 NUniq=    2 SFac= 2.25D+00 NAtFMM=   60 NAOKFM=F Big=F
 Integral buffers will be    131072 words long.
 Raffenetti 1 integral format.
 Two-electron integral symmetry is turned on.
 One-electron integrals computed using PRISM.
 NBasis=    13 RedAO= T EigKep=  1.10D-01  NBF=     7     0     2     4
 NBsUse=    13 1.00D-06 EigRej= -1.00D+00 NBFU=     7     0     2     4
 Initial guess from the checkpoint file:  "h2o_gaussian.chk"
 B after Tr=     0.000000   -0.000000   -0.000000
         Rot=    1.000000    0.000000    0.000000    0.000000 Ang=   0.00 deg.
 Initial guess orbital symmetries:
       Occupied  (A1) (A1) (B2) (A1) (B1)
       Virtual   (A1) (B2) (B2) (A1) (B1) (A1) (B2) (A1)
 Keep R1 ints in memory in symmetry-blocked form, NReq=807464.
 Requested convergence on RMS density matrix=1.00D-08 within 128 cycles.
 Requested convergence on MAX density matrix=1.00D-06.
 Requested convergence on             energy=1.00D-06.
 No special actions if energy rises.
 SCF Done:  E(RHF) =  -75.5859558345     A.U. after    8 cycles
            NFock=  8  Conv=0.52D-08     -V/T= 2.0021
 Calling FoFJK, ICntrl=      2127 FMM=F ISym2X=1 I1Cent= 0 IOpClX= 0 NMat=1 NMatS=1 NMatT=0.
 ***** Axes restored to original set *****
 -------------------------------------------------------------------
 Center     Atomic                   Forces (Hartrees/Bohr)
 Number     Number              X              Y              Z
 -------------------------------------------------------------------
      1        8          -0.000861561   -0.001219081    0.000000000
      2        1           0.001451350   -0.000111727   -0.000000000
      3        1          -0.000589789    0.001330808   -0.000000000
 -------------------------------------------------------------------
 Cartesian Forces:  Max     0.001451350 RMS     0.000847627

 GradGradGradGradGradGradGradGradGradGradGradGradGradGradGradGradGradGrad
 Berny optimization.
 Using GEDIIS/GDIIS optimizer.
 FormGI is forming the generalized inverse of G from B-inverse, IUseBI=4.
 Internal  Forces:  Max     0.001449390 RMS     0.001191905
 Search for a local minimum.
 Step number   2 out of a maximum of   20
 All quantities printed in internal units (Hartrees-Bohrs-Radians)
 Mixed Optimization -- RFO/linear search
 Update second derivatives using D2CorX and points    1    2
 DE= -1.46D-04 DEPred=-1.35D-04 R= 1.08D+00
 TightC=F SS=  1.41D+00  RLast= 3.47D-02 DXNew= 5.0454D-01 1.0421D-01
 Trust test= 1.08D+00 RLast= 3.47D-02 DXMaxT set to 3.00D-01
 The second derivative matrix:
                          R1        R2        A1
           R1           0.50872
           R2          -0.04601   0.50872
           A1           0.01690   0.01690   0.17850
 ITU=  1  0
 Use linear search instead of GDIIS.
     Eigenvalues ---    0.17651   0.46470   0.55473
 RFO step:  Lambda=-7.46594110D-06 EMin= 1.76506140D-01
 Quartic linear search produced a step of  0.08296.
 Iteration  1 RMS(Cart)=  0.00246834 RMS(Int)=  0.00000080
 Iteration  2 RMS(Cart)=  0.00000072 RMS(Int)=  0.00000000
 ClnCor:  largest displacement from symmetrization is 1.11D-15 for atom     3.
 Variable       Old X    -DE/DX   Delta X   Delta X   Delta X     New X
                                 (Linear)    (Quad)   (Total)
    R1        1.82402   0.00145   0.00082   0.00228   0.00310   1.82712
    R2        1.82402   0.00145   0.00082   0.00228   0.00310   1.82712
    A1        1.87933   0.00025  -0.00264   0.00345   0.00081   1.88014
         Item               Value     Threshold  Converged?
 Maximum Force            0.001449     0.000450     NO 
 RMS     Force            0.001192     0.000300     NO 
 Maximum Displacement     0.002637     0.001800     NO 
 RMS     Displacement     0.002469     0.001200     NO 
 Predicted change in Energy=-4.595324D-06
 GradGradGradGradGradGradGradGradGradGradGradGradGradGradGradGradGradGrad

                          Input orientation:                          
 ---------------------------------------------------------------------
 Center     Atomic      Atomic             Coordinates (Angstroms)
 Number     Number       Type             X           Y           Z
 ---------------------------------------------------------------------
      1          8           0       -0.720494    0.647782    0.000000
      2          1           0        0.246260    0.662766   -0.000000
      3          1           0       -1.029078    1.564085    0.000000
 ---------------------------------------------------------------------
                    Distance matrix (angstroms):
                    1          2          3
     1  O    0.000000
     2  H    0.966870   0.000000
     3  H    0.966870   1.561686   0.000000
 Stoichiometry    H2O
 Framework group  C2V[C2(O),SGV(H2)]
 Deg. of freedom     2
 Full point group                 C2V     NOp   4
 Largest Abelian subgroup         C2V     NOp   4
 Largest concise Abelian subgroup C2      NOp   2
                         Standard orientation:                         
 ---------------------------------------------------------------------
 Center     Atomic      Atomic             Coordinates (Angstroms)
 Number     Number       Type             X           Y           Z
 ---------------------------------------------------------------------
      1          8           0       -0.000000    0.000000    0.114039
      2          1           0       -0.000000    0.780843   -0.456155
      3          1           0       -0.000000   -0.780843   -0.456155
 ---------------------------------------------------------------------
 Rotational constants (GHZ):         868.3656043         411.2202535         279.0664821
 Standard basis: 3-21G (6D, 7F)
 There are     7 symmetry adapted cartesian basis functions of A1  symmetry.
 There are     0 symmetry adapted cartesian basis functions of A2  symmetry.
 There are     2 symmetry adapted cartesian basis functions of B1  symmetry.
 There are     4 symmetry adapted cartesian basis functions of B2  symmetry.
 There are     7 symmetry adapted basis functions of A1  symmetry.
 There are     0 symmetry adapted basis functions of A2  symmetry.
 There are     2 symmetry adapted basis functions of B1  symmetry.
 There are     4 symmetry adapted basis functions of B2  symmetry.
    13 basis functions,    21 primitive gaussians,    13 cartesian basis functions
     5 alpha electrons        5 beta electrons
       nuclear repulsion energy         9.0958067048 Hartrees.
 NAtoms=    3 NActive=    3 NUniq=    2 SFac= 2.25D+00 NAtFMM=   60 NAOKFM=F Big=F
 Integral buffers will be    131072 words long.
 Raffenetti 1 integral format.
 Two-electron integral symmetry is turned on.
 One-electron integrals computed using PRISM.
 NBasis=    13 RedAO= T EigKep=  1.11D-01  NBF=     7     0     2     4
 NBsUse=    13 1.00D-06 EigRej= -1.00D+00 NBFU=     7     0     2     4
 Initial guess from the checkpoint file:  "h2o_gaussian.chk"
 B after Tr=    -0.000000    0.000000    0.000000
         Rot=    1.000000   -0.000000   -0.000000   -0.000000 Ang=   0.00 deg.
 Initial guess orbital symmetries:
       Occupied  (A1) (A1) (B2) (A1) (B1)
       Virtual   (A1) (B2) (B2) (A1) (B1) (A1) (B2) (A1)
 Keep R1 ints in memory in symmetry-blocked form, NReq=807464.
 Requested convergence on RMS density matrix=1.00D-08 within 128 cycles.
 Requested convergence on MAX density matrix=1.00D-06.
 Requested convergence on             energy=1.00D-06.
 No special actions if energy rises.
 SCF Done:  E(RHF) =  -75.5859595965     A.U. after    8 cycles
            NFock=  8  Conv=0.15D-08     -V/T= 2.0021
 Calling FoFJK, ICntrl=      2127 FMM=F ISym2X=1 I1Cent= 0 IOpClX= 0 NMat=1 NMatS=1 NMatT=0.
 ***** Axes restored to original set *****
 -------------------------------------------------------------------
 Center     Atomic                   Forces (Hartrees/Bohr)
 Number     Number              X              Y              Z
 -------------------------------------------------------------------
      1        8           0.000072990    0.000103278    0.000000000
      2        1          -0.000243139    0.000094403   -0.000000000
      3        1           0.000170149   -0.000197681   -0.000000000
 -------------------------------------------------------------------
 Cartesian Forces:  Max     0.000243139 RMS     0.000129979

 GradGradGradGradGradGradGradGradGradGradGradGradGradGradGradGradGradGrad
 Berny optimization.
 Using GEDIIS/GDIIS optimizer.
 FormGI is forming the generalized inverse of G from B-inverse, IUseBI=4.
 Internal  Forces:  Max     0.000241647 RMS     0.000222825
 Search for a local minimum.
 Step number   3 out of a maximum of   20
 All quantities printed in internal units (Hartrees-Bohrs-Radians)
 Mixed Optimization -- En-DIIS/RFO-DIIS
 Update second derivatives using D2CorX and points    1    2    3
 DE= -3.76D-06 DEPred=-4.60D-06 R= 8.19D-01
 TightC=F SS=  1.41D+00  RLast= 4.46D-03 DXNew= 5.0454D-01 1.3377D-02
 Trust test= 8.19D-01 RLast= 4.46D-03 DXMaxT set to 3.00D-01
 The second derivative matrix:
                          R1        R2        A1
           R1           0.54421
           R2          -0.01052   0.54421
           A1           0.04476   0.04476   0.18299
 ITU=  1  1  0
 Use linear search instead of GDIIS.
     Eigenvalues ---    0.17192   0.54477   0.55473
 RFO step:  Lambda=-7.93049583D-08 EMin= 1.71919459D-01
 Quartic linear search produced a step of -0.15244.
 Iteration  1 RMS(Cart)=  0.00062723 RMS(Int)=  0.00000015
 Iteration  2 RMS(Cart)=  0.00000010 RMS(Int)=  0.00000000
 ClnCor:  largest displacement from symmetrization is 4.44D-16 for atom     3.
 Variable       Old X    -DE/DX   Delta X   Delta X   Delta X     New X
                                 (Linear)    (Quad)   (Total)
    R1        1.82712  -0.00024  -0.00047   0.00008  -0.00039   1.82673
    R2        1.82712  -0.00024  -0.00047   0.00008  -0.00039   1.82673
    A1        1.88014  -0.00018  -0.00012  -0.00067  -0.00079   1.87935
         Item               Value     Threshold  Converged?
 Maximum Force            0.000242     0.000450     YES
 RMS     Force            0.000223     0.000300     YES
 Maximum Displacement     0.000673     0.001800     YES
 RMS     Displacement     0.000627     0.001200     YES
 Predicted change in Energy=-1.643169D-07
 Optimization completed.
    -- Stationary point found.
                           ----------------------------
                           !   Optimized Parameters   !
                           ! (Angstroms and Degrees)  !
 --------------------------                            --------------------------
 ! Name  Definition              Value          Derivative Info.                !
 --------------------------------------------------------------------------------
 ! R1    R(1,2)                  0.9669         -DE/DX =   -0.0002              !
 ! R2    R(1,3)                  0.9669         -DE/DX =   -0.0002              !
 ! A1    A(2,1,3)              107.724          -DE/DX =   -0.0002              !
 --------------------------------------------------------------------------------
 GradGradGradGradGradGradGradGradGradGradGradGradGradGradGradGradGradGrad

                          Input orientation:                          
 ---------------------------------------------------------------------
 Center     Atomic      Atomic             Coordinates (Angstroms)
 Number     Number       Type             X           Y           Z
 ---------------------------------------------------------------------
      1          8           0       -0.720494    0.647782    0.000000
      2          1           0        0.246260    0.662766   -0.000000
      3          1           0       -1.029078    1.564085    0.000000
 ---------------------------------------------------------------------
                    Distance matrix (angstroms):
                    1          2          3
     1  O    0.000000
     2  H    0.966870   0.000000
     3  H    0.966870   1.561686   0.000000
 Stoichiometry    H2O
 Framework group  C2V[C2(O),SGV(H2)]
 Deg. of freedom     2
 Full point group                 C2V     NOp   4
 Largest Abelian subgroup         C2V     NOp   4
 Largest concise Abelian subgroup C2      NOp   2
                         Standard orientation:                         
 ---------------------------------------------------------------------
 Center     Atomic      Atomic             Coordinates (Angstroms)
 Number     Number       Type             X           Y           Z
 ---------------------------------------------------------------------
      1          8           0        0.000000    0.000000    0.114039
      2          1           0       -0.000000    0.780843   -0.456155
      3          1           0       -0.000000   -0.780843   -0.456155
 ---------------------------------------------------------------------
 Rotational constants (GHZ):         868.3656043         411.2202535         279.0664821

 **********************************************************************

            Population analysis using the SCF density.

 **********************************************************************

 Orbital symmetries:
       Occupied  (A1) (A1) (B2) (A1) (B1)
       Virtual   (A1) (B2) (B2) (A1) (B1) (A1) (B2) (A1)
 The electronic state is 1-A1.
 Alpha  occ. eigenvalues --  -20.42722  -1.32082  -0.68549  -0.52972  -0.47720
 Alpha virt. eigenvalues --    0.26101   0.36028   1.20679   1.27615   1.78399
 Alpha virt. eigenvalues --    1.86332   2.02494   3.10312
          Condensed to atoms (all electrons):
               1          2          3
     1  O    8.204789   0.264045   0.264045
     2  H    0.264045   0.407901  -0.038386
     3  H    0.264045  -0.038386   0.407901
 Mulliken charges:
               1
     1  O   -0.732879
     2  H    0.366440
     3  H    0.366440
 Sum of Mulliken charges =   0.00000
 Mulliken charges with hydrogens summed into heavy atoms:
               1
     1  O    0.000000
 Electronic spatial extent (au):  <R**2>=             18.6219
 Charge=              0.0000 electrons
 Dipole moment (field-independent basis, Debye):
    X=             -0.0000    Y=             -0.0000    Z=             -2.3867  Tot=              2.3867
 Quadrupole moment (field-independent basis, Debye-Ang):
   XX=             -6.8385   YY=             -3.9696   ZZ=             -5.8833
   XY=              0.0000   XZ=              0.0000   YZ=              0.0000
 Traceless Quadrupole moment (field-independent basis, Debye-Ang):
   XX=             -1.2747   YY=              1.5942   ZZ=             -0.3195
   XY=              0.0000   XZ=              0.0000   YZ=              0.0000
 Octapole moment (field-independent basis, Debye-Ang**2):
  XXX=              0.0000  YYY=             -0.0000  ZZZ=             -1.1871  XYY=             -0.0000
  XXY=              0.0000  XXZ=             -0.3030  XZZ=             -0.0000  YZZ=             -0.0000
  YYZ=             -1.2237  XYZ=             -0.0000
 Hexadecapole moment (field-independent basis, Debye-Ang**3):
 XXXX=             -4.2015 YYYY=             -5.4008 ZZZZ=             -5.2848 XXXY=             -0.0000
 XXXZ=             -0.0000 YYYX=             -0.0000 YYYZ=              0.0000 ZZZX=             -0.0000
 ZZZY=              0.0000 XXYY=             -1.8626 XXZZ=             -1.6232 YYZZ=             -1.4990
 XXYZ=              0.0000 YYXZ=              0.0000 ZZXY=              0.0000
 N-N= 9.095806704831D+00 E-N=-1.979067123492D+02  KE= 7.542405605733D+01
 Symmetry A1   KE= 6.745529615017D+01
 Symmetry A2   KE= 0.000000000000D+00
 Symmetry B1   KE= 4.655862952741D+00
 Symmetry B2   KE= 3.312896954417D+00
 1\1\GINC-SV1-C724\FOpt\RHF\3-21G\H2O1\LME\09-Sep-2024\0\\# opt freq hf
 /3-21g geom=connectivity\\Title Card Required\\0,1\O,-0.7204936313,0.6
 477816717,0.\H,0.2462598596,0.66276571,0.\H,-1.0290780038,1.564085398,
 0.\\Version=ES64L-G16RevA.03\State=1-A1\HF=-75.5859596\RMSD=1.502e-09\
 RMSF=1.300e-04\Dipole=0.5419478,0.7668383,0.\Quadrupole=0.7113214,0.23
 63736,-0.947695,-0.6706057,0.,0.\PG=C02V [C2(O1),SGV(H2)]\\@


 CLIMB THE MOUNTAINS AND GET THEIR GOOD TIDINGS.
 NATURE'S PEACE WILL FLOW INTO YOU AS SUNSHINE FLOWS INTO TREES.
 THE WINDS WILL BLOW THEIR OWN FRESHNESS INTO YOU, 
 AND CARES WILL DROP OFF LIKE AUTUMN LEAVES.

                                         -- JOHN MUIR
 Job cpu time:       0 days  0 hours  0 minutes  1.5 seconds.
 Elapsed time:       0 days  0 hours  0 minutes  1.4 seconds.
 File lengths (MBytes):  RWF=      6 Int=      0 D2E=      0 Chk=      1 Scr=      1
 Normal termination of Gaussian 16 at Mon Sep  9 13:36:55 2024.
 Link1:  Proceeding to internal job step number  2.
 --------------------------------------------------------------
 #N Geom=AllCheck Guess=TCheck SCRF=Check GenChk RHF/3-21G Freq
 --------------------------------------------------------------
 1/10=4,29=7,30=1,38=1,40=1/1,3;
 2/12=2,40=1/2;
 3/5=5,11=1,14=-4,25=1,30=1,70=2,71=2,116=1,140=1/1,2,3;
 4/5=101/1;
 5/5=2,38=6,98=1/2;
 8/6=4,10=90,11=11/1;
 10/13=10,15=4/2;
 11/6=3,8=1,9=11,15=111,16=1/1,2,10;
 10/6=1/2;
 6/7=2,8=2,9=2,10=2,28=1/1;
 7/8=1,10=1,25=1/1,2,3,16;
 1/10=4,30=1/3;
 99//99;
 Structure from the checkpoint file:  "h2o_gaussian.chk"
 -------------------
 Title Card Required
 -------------------
 Charge =  0 Multiplicity = 1
 Redundant internal coordinates found in file.  (old form).
 O,0,-0.7204936313,0.6477816717,0.
 H,0,0.2462598596,0.66276571,0.
 H,0,-1.0290780038,1.564085398,0.
 Recover connectivity data from disk.

 GradGradGradGradGradGradGradGradGradGradGradGradGradGradGradGradGradGrad
 Berny optimization.
 Initialization pass.
                           ----------------------------
                           !    Initial Parameters    !
                           ! (Angstroms and Degrees)  !
 --------------------------                            --------------------------
 ! Name  Definition              Value          Derivative Info.                !
 --------------------------------------------------------------------------------
 ! R1    R(1,2)                  0.9669         calculate D2E/DX2 analytically  !
 ! R2    R(1,3)                  0.9669         calculate D2E/DX2 analytically  !
 ! A1    A(2,1,3)              107.724          calculate D2E/DX2 analytically  !
 --------------------------------------------------------------------------------
 Trust Radius=3.00D-01 FncErr=1.00D-07 GrdErr=1.00D-07 EigMax=2.50D+02 EigMin=1.00D-04
 Number of steps in this run=      2 maximum allowed number of steps=      2.
 GradGradGradGradGradGradGradGradGradGradGradGradGradGradGradGradGradGrad

                          Input orientation:                          
 ---------------------------------------------------------------------
 Center     Atomic      Atomic             Coordinates (Angstroms)
 Number     Number       Type             X           Y           Z
 ---------------------------------------------------------------------
      1          8           0       -0.720494    0.647782    0.000000
      2          1           0        0.246260    0.662766   -0.000000
      3          1           0       -1.029078    1.564085    0.000000
 ---------------------------------------------------------------------
                    Distance matrix (angstroms):
                    1          2          3
     1  O    0.000000
     2  H    0.966870   0.000000
     3  H    0.966870   1.561686   0.000000
 Stoichiometry    H2O
 Framework group  C2V[C2(O),SGV(H2)]
 Deg. of freedom     2
 Full point group                 C2V     NOp   4
 Largest Abelian subgroup         C2V     NOp   4
 Largest concise Abelian subgroup C2      NOp   2
                         Standard orientation:                         
 ---------------------------------------------------------------------
 Center     Atomic      Atomic             Coordinates (Angstroms)
 Number     Number       Type             X           Y           Z
 ---------------------------------------------------------------------
      1          8           0        0.000000    0.000000    0.114039
      2          1           0        0.000000    0.780843   -0.456155
      3          1           0       -0.000000   -0.780843   -0.456155
 ---------------------------------------------------------------------
 Rotational constants (GHZ):         868.3656043         411.2202535         279.0664821
 Standard basis: 3-21G (6D, 7F)
 There are     7 symmetry adapted cartesian basis functions of A1  symmetry.
 There are     0 symmetry adapted cartesian basis functions of A2  symmetry.
 There are     2 symmetry adapted cartesian basis functions of B1  symmetry.
 There are     4 symmetry adapted cartesian basis functions of B2  symmetry.
 There are     7 symmetry adapted basis functions of A1  symmetry.
 There are     0 symmetry adapted basis functions of A2  symmetry.
 There are     2 symmetry adapted basis functions of B1  symmetry.
 There are     4 symmetry adapted basis functions of B2  symmetry.
    13 basis functions,    21 primitive gaussians,    13 cartesian basis functions
     5 alpha electrons        5 beta electrons
       nuclear repulsion energy         9.0958067048 Hartrees.
 NAtoms=    3 NActive=    3 NUniq=    2 SFac= 2.25D+00 NAtFMM=   60 NAOKFM=F Big=F
 Integral buffers will be    131072 words long.
 Raffenetti 1 integral format.
 Two-electron integral symmetry is turned on.
 One-electron integrals computed using PRISM.
 NBasis=    13 RedAO= T EigKep=  1.11D-01  NBF=     7     0     2     4
 NBsUse=    13 1.00D-06 EigRej= -1.00D+00 NBFU=     7     0     2     4
 Initial guess from the checkpoint file:  "h2o_gaussian.chk"
 B after Tr=     0.000000    0.000000   -0.000000
         Rot=    1.000000   -0.000000    0.000000    0.000000 Ang=   0.00 deg.
 Initial guess orbital symmetries:
       Occupied  (A1) (A1) (B2) (A1) (B1)
       Virtual   (A1) (B2) (B2) (A1) (B1) (A1) (B2) (A1)
 Keep R1 ints in memory in symmetry-blocked form, NReq=807464.
 Requested convergence on RMS density matrix=1.00D-08 within 128 cycles.
 Requested convergence on MAX density matrix=1.00D-06.
 Requested convergence on             energy=1.00D-06.
 No special actions if energy rises.
 Skip diagonalization as Alpha Fock matrix is already diagonal.
 SCF Done:  E(RHF) =  -75.5859595965     A.U. after    1 cycles
            NFock=  1  Conv=0.00D+00     -V/T= 2.0021
 Range of M.O.s used for correlation:     1    13
 NBasis=    13 NAE=     5 NBE=     5 NFC=     0 NFV=     0
 NROrb=     13 NOA=     5 NOB=     5 NVA=     8 NVB=     8
          Differentiating once with respect to electric field.
                with respect to dipole field.
          Electric field/nuclear overlap derivatives assumed to be zero.
 Keep R1 ints in memory in symmetry-blocked form, NReq=807875.
          There are     3 degrees of freedom in the 1st order CPHF.  IDoFFX=0 NUNeed=     3.
      3 vectors produced by pass  0 Test12= 1.33D-15 3.33D-08 XBig12= 1.17D+00 8.16D-01.
 AX will form     3 AO Fock derivatives at one time.
      3 vectors produced by pass  1 Test12= 1.33D-15 3.33D-08 XBig12= 3.07D-02 1.03D-01.
      3 vectors produced by pass  2 Test12= 1.33D-15 3.33D-08 XBig12= 2.66D-03 2.57D-02.
      3 vectors produced by pass  3 Test12= 1.33D-15 3.33D-08 XBig12= 3.40D-05 3.07D-03.
      3 vectors produced by pass  4 Test12= 1.33D-15 3.33D-08 XBig12= 1.32D-07 1.84D-04.
      3 vectors produced by pass  5 Test12= 1.33D-15 3.33D-08 XBig12= 6.19D-10 1.19D-05.
      2 vectors produced by pass  6 Test12= 1.33D-15 3.33D-08 XBig12= 2.93D-12 1.03D-06.
      1 vectors produced by pass  7 Test12= 1.33D-15 3.33D-08 XBig12= 1.27D-14 6.71D-08.
 InvSVY:  IOpt=1 It=  1 EMax= 4.70D-17
 Solved reduced A of dimension    21 with     3 vectors.
 End of Minotr F.D. properties file   721 does not exist.
 End of Minotr F.D. properties file   722 does not exist.
 End of Minotr F.D. properties file   788 does not exist.
 Symmetrizing basis deriv contribution to polar:
 IMax=3 JMax=2 DiffMx= 0.00D+00
 G2DrvN: will do     4 centers at a time, making    1 passes.
 PxScal for G2LodP:  IOpCl= 0 ISclPx=1 IMOff=     1 NMtTot=     4 NTT=      91 ScalPx= 1.00D+00
 Calling FoFCou, ICntrl=  3107 FMM=F I1Cent=   0 AccDes= 0.00D+00.
 End of G2Drv F.D. properties file   721 does not exist.
 End of G2Drv F.D. properties file   722 does not exist.
 End of G2Drv F.D. properties file   788 does not exist.
          IDoAtm=111
          Differentiating once with respect to electric field.
                with respect to dipole field.
          Differentiating once with respect to nuclear coordinates.
 Keep R1 ints in memory in symmetry-blocked form, NReq=807944.
          There are     9 degrees of freedom in the 1st order CPHF.  IDoFFX=4 NUNeed=     9.
 Will reuse    3 saved solutions.
      6 vectors produced by pass  0 Test12= 4.44D-16 1.11D-08 XBig12= 3.88D-02 1.29D-01.
 AX will form     6 AO Fock derivatives at one time.
      6 vectors produced by pass  1 Test12= 4.44D-16 1.11D-08 XBig12= 2.89D-03 3.06D-02.
      6 vectors produced by pass  2 Test12= 4.44D-16 1.11D-08 XBig12= 3.48D-05 2.43D-03.
      6 vectors produced by pass  3 Test12= 4.44D-16 1.11D-08 XBig12= 1.27D-07 1.97D-04.
      5 vectors produced by pass  4 Test12= 4.44D-16 1.11D-08 XBig12= 6.76D-10 1.17D-05.
      4 vectors produced by pass  5 Test12= 4.44D-16 1.11D-08 XBig12= 1.69D-12 8.31D-07.
      1 vectors produced by pass  6 Test12= 4.44D-16 1.11D-08 XBig12= 3.88D-15 3.03D-08.
 InvSVY:  IOpt=1 It=  1 EMax= 2.22D-16
 Solved reduced A of dimension    34 with     6 vectors.
 Isotropic polarizability for W=    0.000000        3.74 Bohr**3.
 End of Minotr F.D. properties file   721 does not exist.
 End of Minotr F.D. properties file   722 does not exist.
 End of Minotr F.D. properties file   788 does not exist.

 **********************************************************************

            Population analysis using the SCF density.

 **********************************************************************

 Orbital symmetries:
       Occupied  (A1) (A1) (B2) (A1) (B1)
       Virtual   (A1) (B2) (B2) (A1) (B1) (A1) (B2) (A1)
 The electronic state is 1-A1.
 Alpha  occ. eigenvalues --  -20.42722  -1.32082  -0.68549  -0.52972  -0.47720
 Alpha virt. eigenvalues --    0.26101   0.36028   1.20679   1.27615   1.78399
 Alpha virt. eigenvalues --    1.86332   2.02494   3.10312
          Condensed to atoms (all electrons):
               1          2          3
     1  O    8.204789   0.264045   0.264045
     2  H    0.264045   0.407901  -0.038386
     3  H    0.264045  -0.038386   0.407901
 Mulliken charges:
               1
     1  O   -0.732879
     2  H    0.366440
     3  H    0.366440
 Sum of Mulliken charges =   0.00000
 Mulliken charges with hydrogens summed into heavy atoms:
               1
     1  O    0.000000
 APT charges:
               1
     1  O   -0.529425
     2  H    0.264713
     3  H    0.264713
 Sum of APT charges =  -0.00000
 APT charges with hydrogens summed into heavy atoms:
               1
     1  O   -0.000000
 Electronic spatial extent (au):  <R**2>=             18.6219
 Charge=             -0.0000 electrons
 Dipole moment (field-independent basis, Debye):
    X=             -0.0000    Y=              0.0000    Z=             -2.3867  Tot=              2.3867
 Quadrupole moment (field-independent basis, Debye-Ang):
   XX=             -6.8385   YY=             -3.9696   ZZ=             -5.8833
   XY=              0.0000   XZ=              0.0000   YZ=             -0.0000
 Traceless Quadrupole moment (field-independent basis, Debye-Ang):
   XX=             -1.2747   YY=              1.5942   ZZ=             -0.3195
   XY=              0.0000   XZ=              0.0000   YZ=             -0.0000
 Octapole moment (field-independent basis, Debye-Ang**2):
  XXX=              0.0000  YYY=              0.0000  ZZZ=             -1.1871  XYY=             -0.0000
  XXY=             -0.0000  XXZ=             -0.3030  XZZ=             -0.0000  YZZ=              0.0000
  YYZ=             -1.2237  XYZ=             -0.0000
 Hexadecapole moment (field-independent basis, Debye-Ang**3):
 XXXX=             -4.2015 YYYY=             -5.4008 ZZZZ=             -5.2848 XXXY=             -0.0000
 XXXZ=             -0.0000 YYYX=             -0.0000 YYYZ=             -0.0000 ZZZX=             -0.0000
 ZZZY=              0.0000 XXYY=             -1.8626 XXZZ=             -1.6232 YYZZ=             -1.4990
 XXYZ=              0.0000 YYXZ=              0.0000 ZZXY=              0.0000
 N-N= 9.095806704831D+00 E-N=-1.979067123492D+02  KE= 7.542405605733D+01
 Symmetry A1   KE= 6.745529615017D+01
 Symmetry A2   KE= 0.000000000000D+00
 Symmetry B1   KE= 4.655862952741D+00
 Symmetry B2   KE= 3.312896954417D+00
  Exact polarizability:   0.783   0.000   6.808   0.000  -0.000   3.626
 Approx polarizability:   0.581   0.000   4.871   0.000  -0.000   2.823
 Calling FoFJK, ICntrl=    100127 FMM=F ISym2X=1 I1Cent= 0 IOpClX= 0 NMat=1 NMatS=1 NMatT=0.
 Full mass-weighted force constant matrix:
 Low frequencies ---   -0.0018   -0.0017   -0.0014   41.6244   60.0673   67.0543
 Low frequencies --- 1799.2006 3809.3891 3943.2818
 Diagonal vibrational polarizability:
        0.0000000       0.0159263       0.6650571
 Diagonal vibrational hyperpolarizability:
        0.0000000      -0.0000000      -8.2371542
 Harmonic frequencies (cm**-1), IR intensities (KM/Mole), Raman scattering
 activities (A**4/AMU), depolarization ratios for plane and unpolarized
 incident light, reduced masses (AMU), force constants (mDyne/A),
 and normal coordinates:
                      1                      2                      3
                     A1                     A1                     B2
 Frequencies --   1799.2006              3809.3891              3943.2818
 Red. masses --      1.0899                 1.0386                 1.0850
 Frc consts  --      2.0786                 8.8796                 9.9406
 IR Inten    --     79.9885                 0.0475                 9.2023
 Raman Activ --     11.4963                95.8049                44.0802
 Depolar (P) --      0.4298                 0.2181                 0.7500
 Depolar (U) --      0.6012                 0.3582                 0.8571
  Atom  AN      X      Y      Z        X      Y      Z        X      Y      Z
     1   8    -0.00  -0.00  -0.07     0.00   0.00   0.05    -0.00  -0.07   0.00
     2   1     0.00   0.39   0.59     0.00   0.61  -0.36     0.00   0.57  -0.42
     3   1     0.00  -0.39   0.59    -0.00  -0.61  -0.36     0.00   0.57   0.42

 -------------------
 - Thermochemistry -
 -------------------
 Temperature   298.150 Kelvin.  Pressure   1.00000 Atm.
 Atom     1 has atomic number  8 and mass  15.99491
 Atom     2 has atomic number  1 and mass   1.00783
 Atom     3 has atomic number  1 and mass   1.00783
 Molecular mass:    18.01056 amu.
 Principal axes and moments of inertia in atomic units:
                           1         2         3
     Eigenvalues --     2.07832   4.38875   6.46707
           X           -0.00000   0.00000   1.00000
           Y            1.00000   0.00000   0.00000
           Z           -0.00000   1.00000  -0.00000
 This molecule is an asymmetric top.
 Rotational symmetry number  2.
 Rotational temperatures (Kelvin)     41.67498    19.73546    13.39308
 Rotational constants (GHZ):         868.36560   411.22025   279.06648
 Zero-point vibrational energy      57132.9 (Joules/Mol)
                                   13.65509 (Kcal/Mol)
 Vibrational temperatures:   2588.65  5480.86  5673.50
          (Kelvin)
 
 Zero-point correction=                           0.021761 (Hartree/Particle)
 Thermal correction to Energy=                    0.024595
 Thermal correction to Enthalpy=                  0.025539
 Thermal correction to Gibbs Free Energy=         0.004116
 Sum of electronic and zero-point Energies=            -75.564199
 Sum of electronic and thermal Energies=               -75.561365
 Sum of electronic and thermal Enthalpies=             -75.560421
 Sum of electronic and thermal Free Energies=          -75.581844
 
                     E (Thermal)             CV                S
                      KCal/Mol        Cal/Mol-Kelvin    Cal/Mol-Kelvin
 Total                   15.433              5.987             45.088
 Electronic               0.000              0.000              0.000
 Translational            0.889              2.981             34.608
 Rotational               0.889              2.981             10.477
 Vibrational             13.656              0.025              0.003
                       Q            Log10(Q)             Ln(Q)
 Total Bot       0.127869D-01         -1.893234         -4.359332
 Total V=0       0.130621D+09          8.116014         18.687813
 Vib (Bot)       0.979097D-10        -10.009174        -23.046976
 Vib (V=0)       0.100017D+01          0.000074          0.000170
 Electronic      0.100000D+01          0.000000          0.000000
 Translational   0.300431D+07          6.477745         14.915559
 Rotational      0.434706D+02          1.638196          3.772085
 ***** Axes restored to original set *****
 -------------------------------------------------------------------
 Center     Atomic                   Forces (Hartrees/Bohr)
 Number     Number              X              Y              Z
 -------------------------------------------------------------------
      1        8           0.000072990    0.000103278    0.000000000
      2        1          -0.000243139    0.000094403    0.000000000
      3        1           0.000170149   -0.000197681   -0.000000000
 -------------------------------------------------------------------
 Cartesian Forces:  Max     0.000243139 RMS     0.000129979
 FormGI is forming the generalized inverse of G from B-inverse, IUseBI=4.

 GradGradGradGradGradGradGradGradGradGradGradGradGradGradGradGradGradGrad
 Berny optimization.
 Internal  Forces:  Max     0.000241647 RMS     0.000222825
 Search for a local minimum.
 Step number   1 out of a maximum of    2
 All quantities printed in internal units (Hartrees-Bohrs-Radians)
 Second derivative matrix not updated -- analytic derivatives used.
 The second derivative matrix:
                          R1        R2        A1
           R1           0.53959
           R2          -0.00842   0.53959
           A1           0.04275   0.04275   0.19734
 ITU=  0
     Eigenvalues ---    0.18673   0.54178   0.54802
 Angle between quadratic step and forces=  25.12 degrees.
 Linear search not attempted -- first point.
 Iteration  1 RMS(Cart)=  0.00060328 RMS(Int)=  0.00000014
 Iteration  2 RMS(Cart)=  0.00000009 RMS(Int)=  0.00000000
 ClnCor:  largest displacement from symmetrization is 1.33D-15 for atom     3.
 Variable       Old X    -DE/DX   Delta X   Delta X   Delta X     New X
                                 (Linear)    (Quad)   (Total)
    R1        1.82712  -0.00024   0.00000  -0.00040  -0.00040   1.82672
    R2        1.82712  -0.00024   0.00000  -0.00040  -0.00040   1.82672
    A1        1.88014  -0.00018   0.00000  -0.00074  -0.00074   1.87940
         Item               Value     Threshold  Converged?
 Maximum Force            0.000242     0.000450     YES
 RMS     Force            0.000223     0.000300     YES
 Maximum Displacement     0.000645     0.001800     YES
 RMS     Displacement     0.000603     0.001200     YES
 Predicted change in Energy=-1.617199D-07
 Optimization completed.
    -- Stationary point found.
                           ----------------------------
                           !   Optimized Parameters   !
                           ! (Angstroms and Degrees)  !
 --------------------------                            --------------------------
 ! Name  Definition              Value          Derivative Info.                !
 --------------------------------------------------------------------------------
 ! R1    R(1,2)                  0.9669         -DE/DX =   -0.0002              !
 ! R2    R(1,3)                  0.9669         -DE/DX =   -0.0002              !
 ! A1    A(2,1,3)              107.724          -DE/DX =   -0.0002              !
 --------------------------------------------------------------------------------
 GradGradGradGradGradGradGradGradGradGradGradGradGradGradGradGradGradGrad


 ----------------------------------------------------------------------

 Electric dipole moment (input orientation):
 (Debye = 10**-18 statcoulomb cm , SI units = C m)
                  (au)            (Debye)         (10**-30 SI)
   Tot        0.939015D+00      0.238674D+01      0.796130D+01
   x          0.541948D+00      0.137749D+01      0.459482D+01
   y          0.766838D+00      0.194911D+01      0.650153D+01
   z          0.000000D+00      0.000000D+00      0.000000D+00

 Dipole polarizability, Alpha (input orientation).
 (esu units = cm**3 , SI units = C**2 m**2 J**-1)
 Alpha(0;0):
               (au)            (10**-24 esu)      (10**-40 SI)
   iso        0.373899D+01      0.554062D+00      0.616477D+00
   aniso      0.522048D+01      0.773596D+00      0.860741D+00
   xx         0.574805D+01      0.851773D+00      0.947725D+00
   yx        -0.149997D+01     -0.222272D+00     -0.247311D+00
   yy         0.468572D+01      0.694351D+00      0.772570D+00
   zx         0.000000D+00      0.000000D+00      0.000000D+00
   zy         0.000000D+00      0.000000D+00      0.000000D+00
   zz         0.783222D+00      0.116062D+00      0.129136D+00

 First dipole hyperpolarizability, Beta (input orientation).
 ||, _|_  parallel and perpendicular components, (z) with respect to z axis,
 vector components x,y,z.  Values do not include the 1/n! factor of 1/2.
 (esu units = statvolt**-1 cm**4 , SI units = C**3 m**3 J**-2)
 Beta(0;0,0):
               (au)            (10**-30 esu)      (10**-50 SI)
   || (z)     0.000000D+00      0.000000D+00      0.000000D+00
   _|_(z)     0.000000D+00      0.000000D+00      0.000000D+00
   x          0.564519D+02      0.487701D+00      0.181005D+00
   y          0.798776D+02      0.690080D+00      0.256116D+00
   z          0.000000D+00      0.000000D+00      0.000000D+00
   ||         0.195625D+02      0.169004D+00      0.627243D-01
   xxx        0.261319D+02      0.225759D+00      0.837883D-01
   xxy        0.302993D+01      0.261762D-01      0.971505D-02
   yxy       -0.773360D+01     -0.668123D-01     -0.247967D-01
   yyy        0.230031D+02      0.198728D+00      0.737561D-01
   xxz        0.000000D+00      0.000000D+00      0.000000D+00
   yxz        0.000000D+00      0.000000D+00      0.000000D+00
   yyz        0.000000D+00      0.000000D+00      0.000000D+00
   zxz        0.419007D+00      0.361990D-02      0.134349D-02
   zyz        0.592882D+00      0.512203D-02      0.190099D-02
   zzz        0.000000D+00      0.000000D+00      0.000000D+00

 ----------------------------------------------------------------------

 Dipole orientation:
     8         -1.48497063          1.04947348          0.21387164
     1         -0.27995099          0.19784980          1.29138160
     1         -2.68999027          1.90109716          1.29138160

 Electric dipole moment (dipole orientation):
 (Debye = 10**-18 statcoulomb cm , SI units = C m)
                  (au)            (Debye)         (10**-30 SI)
   Tot        0.939015D+00      0.238674D+01      0.796130D+01
   x          0.000000D+00      0.000000D+00      0.000000D+00
   y          0.000000D+00      0.000000D+00      0.000000D+00
   z          0.939015D+00      0.238674D+01      0.796130D+01

 Dipole polarizability, Alpha (dipole orientation).
 (esu units = cm**3 , SI units = C**2 m**2 J**-1)
 Alpha(0;0):
               (au)            (10**-24 esu)      (10**-40 SI)
   iso        0.373899D+01      0.554062D+00      0.616477D+00
   aniso      0.522048D+01      0.773596D+00      0.860741D+00
   xx         0.480125D+01      0.711471D+00      0.791618D+00
   yx        -0.283966D+01     -0.420794D+00     -0.468196D+00
   yy         0.279009D+01      0.413449D+00      0.460024D+00
   zx         0.000000D+00      0.000000D+00      0.000000D+00
   zy         0.000000D+00      0.000000D+00      0.000000D+00
   zz         0.362564D+01      0.537265D+00      0.597788D+00

 First dipole hyperpolarizability, Beta (dipole orientation).
 ||, _|_  parallel and perpendicular components, (z) with respect to z axis,
 vector components x,y,z.  Values do not include the 1/n! factor of 1/2.
 (esu units = statvolt**-1 cm**4 , SI units = C**3 m**3 J**-2)
 Beta(0;0,0):
               (au)            (10**-30 esu)      (10**-50 SI)
   || (z)     0.195625D+02      0.169004D+00      0.627243D-01
   _|_(z)     0.652082D+01      0.563348D-01      0.209081D-01
   x          0.000000D+00      0.000000D+00      0.000000D+00
   y          0.000000D+00      0.000000D+00      0.000000D+00
   z          0.978123D+02      0.845022D+00      0.313622D+00
   ||         0.195625D+02      0.169004D+00      0.627243D-01
   xxx        0.000000D+00      0.000000D+00      0.000000D+00
   xxy        0.000000D+00      0.000000D+00      0.000000D+00
   yxy        0.000000D+00      0.000000D+00      0.000000D+00
   yyy        0.000000D+00      0.000000D+00      0.000000D+00
   xxz        0.141026D+02      0.121836D+00      0.452181D-01
   yxz       -0.945366D+01     -0.816723D-01     -0.303119D-01
   yyz        0.740719D+01      0.639923D-01      0.237501D-01
   zxz        0.000000D+00      0.000000D+00      0.000000D+00
   zyz        0.000000D+00      0.000000D+00      0.000000D+00
   zzz        0.110943D+02      0.958461D-01      0.355723D-01

 ----------------------------------------------------------------------
 1\1\GINC-SV1-C724\Freq\RHF\3-21G\H2O1\LME\09-Sep-2024\0\\#N Geom=AllCh
 eck Guess=TCheck SCRF=Check GenChk RHF/3-21G Freq\\Title Card Required
 \\0,1\O,-0.7204936313,0.6477816717,0.\H,0.2462598596,0.66276571,0.\H,-
 1.0290780038,1.564085398,0.\\Version=ES64L-G16RevA.03\State=1-A1\HF=-7
 5.5859596\RMSD=0.000e+00\RMSF=1.300e-04\ZeroPoint=0.0217608\Thermal=0.
 0245947\Dipole=0.5419478,0.7668383,0.\DipoleDeriv=-0.3679988,0.0270943
 ,0.,0.0270943,-0.3488095,0.,0.,0.,-0.8714672,0.0517248,-0.0238792,0.,-
 0.0968969,0.3066793,0.,0.,0.,0.4357336,0.3162739,-0.0032151,0.,0.06980
 25,0.0421302,0.,0.,0.,0.4357336\Polar=5.7480467,-1.4999654,4.6857155,0
 .,0.,0.783222\PolarDeriv=-7.1830801,-1.3760883,0.0781496,0.,0.,0.27696
 22,-2.4003914,0.8020556,-7.6528526,0.,0.,0.3918925,0.,0.,0.,-1.522483,
 -2.1542636,0.,8.4149044,-0.7414903,0.3261842,0.,0.,-0.3804187,1.039397
 1,1.7594509,0.3202685,0.,0.,-0.0249617,0.,0.,0.,2.428444,-0.1011304,0.
 ,-1.2318243,2.1175786,-0.4043338,0.,0.,0.1034565,1.3609944,-2.5615064,
 7.3325841,0.,0.,-0.3669308,0.,0.,0.,-0.905961,2.2553941,0.\HyperPolar=
 26.1319001,3.0299309,-7.7336039,23.0030562,0.,0.,0.,0.4190072,0.592881
 5,0.\Quadrupole=0.7113214,0.2363736,-0.947695,-0.6706057,0.,0.\PG=C02V
  [C2(O1),SGV(H2)]\NImag=0\\0.62156215,-0.13198337,0.52808663,0.,0.,0.0
 0011737,-0.51973212,0.03128768,0.,0.54019885,-0.04729120,-0.05509227,0
 .,-0.01588937,0.05863841,0.,0.,-0.00005869,0.,0.,0.00011509,-0.1018300
 3,0.10069569,0.,-0.02046673,0.06318057,0.,0.12229676,0.17927457,-0.472
 99436,0.,-0.01539831,-0.00354614,0.,-0.16387626,0.47654050,0.,0.,-0.00
 005869,0.,0.,-0.00005640,0.,0.,0.00011509\\-0.00007299,-0.00010328,0.,
 0.00024314,-0.00009440,0.,-0.00017015,0.00019768,0.\\\@


 IT TAKES GREATER CHARACTER TO CARRY OFF GOOD FORTUNE THAN BAD.
                     FRENCH PROVERB.
 Job cpu time:       0 days  0 hours  0 minutes  0.9 seconds.
 Elapsed time:       0 days  0 hours  0 minutes  0.9 seconds.
 File lengths (MBytes):  RWF=      6 Int=      0 D2E=      0 Chk=      1 Scr=      1
 Normal termination of Gaussian 16 at Mon Sep  9 13:36:56 2024.
