Title Card Required                                                     
Freq      RHF                                                         6-311G(d,p)         
Number of atoms                            I                3
Info1-9                                    I   N=           9
          12          12        1002           0           0         100
           6           1           2
Full Title                                 C   N=           2
Title Card Required     
Route                                      C   N=           3
#p opt freq hf/6-311g(d,p)          
Charge                                     I                0
Multiplicity                               I                1
Number of electrons                        I               10
Number of alpha electrons                  I                5
Number of beta electrons                   I                5
Number of basis functions                  I               30
Number of independent functions            I               30
Number of point charges in /Mol/           I                0
Number of translation vectors              I                0
Atomic numbers                             I   N=           3
           8           1           1
Nuclear charges                            R   N=           3
  8.00000000E+00  1.00000000E+00  1.00000000E+00
Current cartesian coordinates              R   N=           9
 -2.28462516E-31  1.87986158E-17  2.15196260E-01  7.56504681E-32  1.41564712E+00
 -8.60785041E-01 -1.73366771E-16 -1.41564712E+00 -8.60785041E-01
Number of symbols in /Mol/                 I                0
Force Field                                I                0
Atom Types                                 C   N=           3
                                    
Int Atom Types                             I   N=           3
           0           0           0
MM charges                                 R   N=           3
  0.00000000E+00  0.00000000E+00  0.00000000E+00
Integer atomic weights                     I   N=           3
          16           1           1
Real atomic weights                        R   N=           3
  1.59949146E+01  1.00782504E+00  1.00782504E+00
Atom fragment info                         I   N=           3
           0           0           0
Atom residue num                           I   N=           3
           0           0           0
Nuclear spins                              I   N=           3
           0           1           1
Nuclear ZEff                               R   N=           3
 -5.60000000E+00 -1.00000000E+00 -1.00000000E+00
Nuclear ZNuc                               R   N=           3
  8.00000000E+00  1.00000000E+00  1.00000000E+00
Nuclear QMom                               R   N=           3
  0.00000000E+00  0.00000000E+00  0.00000000E+00
Nuclear GFac                               R   N=           3
  0.00000000E+00  2.79284600E+00  2.79284600E+00
MicOpt                                     I   N=           3
          -1          -1          -1
Number of residues                         I                0
Number of secondary structures             I                0
Redundant internal dimensions              I   N=           4
           3           2           1           0
Redundant internal coordinate indices      I   N=          12
           1           2           0           0           1           3
           0           0           2           1           3           0
Redundant internal coordinates             R   N=           3
  1.77814300E+00  1.77814300E+00  1.84177161E+00
ZRed-IntVec                                I   N=           3
           0           0           0
ZRed-FPVec                                 R   N=           3
  0.00000000E+00  0.00000000E+00  0.00000000E+00
ZRed-Constraint1                           R   N=           3
  1.77814300E+00  1.77814300E+00  1.84177161E+00
ZRed-Constraint2                           R   N=           3
  1.81413708E+00  1.81413708E+00  1.82386907E+00
SymInf integers                            I   N=          26
           2           4           1           1           1          -1
          -1           1          -1           1           1           1
          -1           1           0           0           0           0
           0           0           0           0           0           0
           0           0
RotTr to input orientation                 R   N=          12
  1.77290783E-15 -1.00000000E+00 -1.07910369E-15 -6.12217280E-01 -1.93864085E-15
  7.90689574E-01 -7.90689574E-01 -7.41173808E-16 -6.12217280E-01  1.88426152E-01
  6.85242770E-17  1.45895115E-01
Number of contracted shells                I               13
Number of primitive shells                 I               24
Pure/Cartesian d shells                    I                0
Pure/Cartesian f shells                    I                0
Highest angular momentum                   I                2
Largest degree of contraction              I                6
Shell types                                I   N=          13
           0          -1          -1          -1          -2           0
           0           0           1           0           0           0
           1
Number of primitives per shell             I   N=          13
           6           3           1           1           1           3
           1           1           1           3           1           1
           1
Shell to atom map                          I   N=          13
           1           1           1           1           1           2
           2           2           2           3           3           3
           3
Primitive exponents                        R   N=          24
  8.58850000E+03  1.29723000E+03  2.99296000E+02  8.73771000E+01  2.56789000E+01
  3.74004000E+00  4.21175000E+01  9.62837000E+00  2.85332000E+00  9.05661000E-01
  2.55611000E-01  1.29200000E+00  3.38650000E+01  5.09479000E+00  1.15879000E+00
  3.25840000E-01  1.02741000E-01  7.50000000E-01  3.38650000E+01  5.09479000E+00
  1.15879000E+00  3.25840000E-01  1.02741000E-01  7.50000000E-01
Contraction coefficients                   R   N=          24
  1.89515008E-03  1.43859006E-02  7.07320031E-02  2.40001011E-01  5.94797026E-01
  2.80802012E-01  1.13889012E-01  9.20811101E-01 -3.27447036E-03  1.00000000E+00
  1.00000000E+00  1.00000000E+00  2.54938145E-02  1.90373109E-01  8.52161486E-01
  1.00000000E+00  1.00000000E+00  1.00000000E+00  2.54938145E-02  1.90373109E-01
  8.52161486E-01  1.00000000E+00  1.00000000E+00  1.00000000E+00
P(S=P) Contraction coefficients            R   N=          24
  0.00000000E+00  0.00000000E+00  0.00000000E+00  0.00000000E+00  0.00000000E+00
  0.00000000E+00  3.65113974E-02  2.37152983E-01  8.19701941E-01  1.00000000E+00
  1.00000000E+00  0.00000000E+00  0.00000000E+00  0.00000000E+00  0.00000000E+00
  0.00000000E+00  0.00000000E+00  0.00000000E+00  0.00000000E+00  0.00000000E+00
  0.00000000E+00  0.00000000E+00  0.00000000E+00  0.00000000E+00
Coordinates of each shell                  R   N=          39
 -1.54506806E-31  1.87986158E-17  2.15196260E-01 -1.54506806E-31  1.87986158E-17
  2.15196260E-01 -1.54506806E-31  1.87986158E-17  2.15196260E-01 -1.54506806E-31
  1.87986158E-17  2.15196260E-01 -1.54506806E-31  1.87986158E-17  2.15196260E-01
  7.56504681E-32  1.41564712E+00 -8.60785041E-01  7.56504681E-32  1.41564712E+00
 -8.60785041E-01  7.56504681E-32  1.41564712E+00 -8.60785041E-01  7.56504681E-32
  1.41564712E+00 -8.60785041E-01 -1.73366771E-16 -1.41564712E+00 -8.60785041E-01
 -1.73366771E-16 -1.41564712E+00 -8.60785041E-01 -1.73366771E-16 -1.41564712E+00
 -8.60785041E-01 -1.73366771E-16 -1.41564712E+00 -8.60785041E-01
Num ILSW                                   I              100
ILSW                                       I   N=         100
           0           0           0           0           2           0
           0           0           0           0           0          -1
           5           0           0           0           2           0
           0           0           0           0           1           0
           1           0           0           0           0           0
           0           0      100000           0          -1           0
           0           0           0           0           0           0
           0           0           0           1           0           0
           0 -2000000000           1           0           0           0
           0           0           4          52           0           0
           0           0           0           0           0           0
           0           0           0           3           0           1
           0           0           0           0           0           0
           0           0           0           0           0           0
           0           0           0           0           0           0
           0           0           0           0           0           0
           0           0           0           0
Num RLSW                                   I               52
RLSW                                       R   N=          52
  1.00000000E+00  1.00000000E+00  1.00000000E+00  1.00000000E+00  1.00000000E+00
  0.00000000E+00  0.00000000E+00  1.00000000E+00  0.00000000E+00  0.00000000E+00
  0.00000000E+00  0.00000000E+00  1.00000000E+00  0.00000000E+00  0.00000000E+00
  0.00000000E+00  0.00000000E+00  1.00000000E+00  0.00000000E+00  0.00000000E+00
  0.00000000E+00  0.00000000E+00  1.00000000E+00  0.00000000E+00  0.00000000E+00
  0.00000000E+00  0.00000000E+00  1.00000000E+00  0.00000000E+00  0.00000000E+00
  0.00000000E+00  0.00000000E+00  1.00000000E+00  0.00000000E+00  0.00000000E+00
  0.00000000E+00  0.00000000E+00  0.00000000E+00  1.00000000E+00  1.00000000E+00
  0.00000000E+00  1.00000000E+00  0.00000000E+00  0.00000000E+00  0.00000000E+00
  0.00000000E+00  0.00000000E+00  0.00000000E+00  0.00000000E+00  0.00000000E+00
  0.00000000E+00  0.00000000E+00
MxBond                                     I                2
NBond                                      I   N=           3
           2           1           1
IBond                                      I   N=           6
           2           3           1           0           1           0
RBond                                      R   N=           6
  1.00000000E+00  1.00000000E+00  1.00000000E+00  0.00000000E+00  1.00000000E+00
  0.00000000E+00
Virial Ratio                               R      1.999003469499891E+00
SCF Energy                                 R     -7.604701192001772E+01
Total Energy                               R     -7.604701192001772E+01
RMS Force                                  R      7.504844509243638E-05
RMS Density                                R      2.205973381831326E-10
NImag                                      I                0
Job Status                                 I                1
Nuclear derivative order                   I                2
External E-field                           R   N=          35
  0.00000000E+00  0.00000000E+00  0.00000000E+00  0.00000000E+00  0.00000000E+00
  0.00000000E+00  0.00000000E+00  0.00000000E+00  0.00000000E+00  0.00000000E+00
  0.00000000E+00  0.00000000E+00  0.00000000E+00  0.00000000E+00  0.00000000E+00
  0.00000000E+00  0.00000000E+00  0.00000000E+00  0.00000000E+00  0.00000000E+00
  0.00000000E+00  0.00000000E+00  0.00000000E+00  0.00000000E+00  0.00000000E+00
  0.00000000E+00  0.00000000E+00  0.00000000E+00  0.00000000E+00  0.00000000E+00
  0.00000000E+00  0.00000000E+00  0.00000000E+00  0.00000000E+00  0.00000000E+00
IOpCl                                      I                0
IROHF                                      I                0
Alpha Orbital Energies                     R   N=          30
 -2.05412977E+01 -1.34910055E+00 -7.17358537E-01 -5.72730206E-01 -5.00644034E-01
  1.52617682E-01  2.18566921E-01  5.77370928E-01  6.20515563E-01  9.97461540E-01
  1.00312076E+00  1.11137342E+00  1.31042748E+00  1.49915432E+00  1.51568474E+00
  1.72724946E+00  1.92997010E+00  2.27783154E+00  2.39766160E+00  2.61038718E+00
  2.76820704E+00  3.50498602E+00  3.57237465E+00  3.73787119E+00  4.03581358E+00
  4.28196348E+00  5.33050905E+00  5.76153883E+00  6.25860819E+00  5.15751270E+01
Alpha MO coefficients                      R   N=         900
  5.51429802E-01  4.71678431E-01  0.00000000E+00  0.00000000E+00 -1.78481315E-03
  5.56707746E-03  0.00000000E+00  0.00000000E+00  6.17437247E-04 -4.64913296E-04
  0.00000000E+00  0.00000000E+00 -9.47363257E-05 -1.77851604E-05  0.00000000E+00
  0.00000000E+00  1.22807341E-04  0.00000000E+00  2.08534802E-04  8.29456420E-05
  9.89378973E-05  0.00000000E+00 -7.01967177E-05  1.06608772E-05  2.08534802E-04
  8.29456420E-05  9.89378973E-05  0.00000000E+00  7.01967177E-05  1.06608772E-05
 -1.13362973E-01 -1.89362844E-01  0.00000000E+00  0.00000000E+00 -3.80070007E-02
  5.37888166E-01  0.00000000E+00  0.00000000E+00 -6.31073234E-02  3.71934279E-01
  0.00000000E+00  0.00000000E+00 -2.07730190E-02  2.74773081E-03  0.00000000E+00
  0.00000000E+00 -8.04820427E-03  0.00000000E+00  9.65575305E-02  8.12977561E-02
 -2.67404453E-03  0.00000000E+00 -2.38637214E-02  1.43982352E-02  9.65575305E-02
  8.12977561E-02 -2.67404453E-03  0.00000000E+00  2.38637214E-02  1.43982352E-02
  0.00000000E+00  0.00000000E+00  0.00000000E+00  2.27365744E-01  0.00000000E+00
  0.00000000E+00  0.00000000E+00  3.48840428E-01  0.00000000E+00  0.00000000E+00
  0.00000000E+00  2.11705756E-01  0.00000000E+00  0.00000000E+00  0.00000000E+00
 -2.93188369E-02  0.00000000E+00  0.00000000E+00  1.51286105E-01  2.12246712E-01
  5.44398467E-02  0.00000000E+00 -1.87306424E-02  2.56533148E-02 -1.51286105E-01
 -2.12246712E-01 -5.44398467E-02  0.00000000E+00 -1.87306424E-02 -2.56533148E-02
 -3.81182856E-02 -6.48233111E-02  0.00000000E+00  0.00000000E+00  2.55728398E-01
  1.96353532E-01  0.00000000E+00  0.00000000E+00  3.78251022E-01  3.34604170E-01
  0.00000000E+00  0.00000000E+00  3.40205721E-01 -1.69779873E-02  0.00000000E+00
  0.00000000E+00  5.06737813E-03  0.00000000E+00 -8.74271205E-02 -1.45861221E-01
 -2.72769521E-02  0.00000000E+00  2.96916744E-02  9.59302739E-03 -8.74271205E-02
 -1.45861221E-01 -2.72769521E-02  0.00000000E+00 -2.96916744E-02  9.59302739E-03
  0.00000000E+00  0.00000000E+00  2.91691886E-01  0.00000000E+00  0.00000000E+00
  0.00000000E+00  4.36675411E-01  0.00000000E+00  0.00000000E+00  0.00000000E+00
  4.65891839E-01  0.00000000E+00  0.00000000E+00  0.00000000E+00 -1.71346146E-02
  0.00000000E+00  0.00000000E+00  0.00000000E+00  0.00000000E+00  0.00000000E+00
  0.00000000E+00  3.15280402E-02  0.00000000E+00  0.00000000E+00  0.00000000E+00
  0.00000000E+00  0.00000000E+00  3.15280402E-02  0.00000000E+00  0.00000000E+00
 -3.35113125E-02 -5.46501618E-02  0.00000000E+00  0.00000000E+00 -7.15560371E-02
  1.02721318E-01  0.00000000E+00  0.00000000E+00 -1.13907553E-01  8.53057738E-01
  0.00000000E+00  0.00000000E+00 -1.99911862E-01  4.55231121E-03  0.00000000E+00
  0.00000000E+00 -3.67544294E-03  0.00000000E+00 -3.41535617E-02  6.81261918E-02
 -8.44473070E-01  0.00000000E+00 -5.11329139E-03 -3.82512169E-03 -3.41535617E-02
  6.81261918E-02 -8.44473070E-01  0.00000000E+00  5.11329139E-03 -3.82512169E-03
  0.00000000E+00  0.00000000E+00  0.00000000E+00 -1.20216766E-01  0.00000000E+00
  0.00000000E+00  0.00000000E+00 -1.27444192E-01  0.00000000E+00  0.00000000E+00
  0.00000000E+00 -4.95426401E-01  0.00000000E+00  0.00000000E+00  0.00000000E+00
  5.54222240E-03  0.00000000E+00  0.00000000E+00  2.36010449E-02 -1.30144060E-01
  1.57961598E+00  0.00000000E+00  8.85062863E-03 -8.17748664E-03 -2.36010449E-02
  1.30144060E-01 -1.57961598E+00  0.00000000E+00  8.85062863E-03  8.17748664E-03
  0.00000000E+00  0.00000000E+00  0.00000000E+00 -1.20362717E-01  0.00000000E+00
  0.00000000E+00  0.00000000E+00 -1.85811911E-01  0.00000000E+00  0.00000000E+00
  0.00000000E+00 -1.17189753E+00  0.00000000E+00  0.00000000E+00  0.00000000E+00
 -1.30030722E-02  0.00000000E+00  0.00000000E+00  7.97476763E-02  1.48697798E+00
 -7.21491928E-01  0.00000000E+00 -2.62750840E-02 -2.76605083E-03 -7.97476763E-02
 -1.48697798E+00  7.21491928E-01  0.00000000E+00 -2.62750840E-02  2.76605083E-03
  3.35893782E-02  5.90150279E-02  0.00000000E+00  0.00000000E+00  9.59083778E-02
 -1.34982923E-01  0.00000000E+00  0.00000000E+00  1.85324359E-01 -1.48805072E+00
  0.00000000E+00  0.00000000E+00  1.08729427E+00 -1.12648702E-02  0.00000000E+00
  0.00000000E+00 -8.12730382E-03  0.00000000E+00  6.27290504E-02  1.84987767E+00
 -6.00393599E-01  0.00000000E+00 -3.68530750E-02  4.46591743E-02  6.27290504E-02
  1.84987767E+00 -6.00393599E-01  0.00000000E+00  3.68530750E-02  4.46591743E-02
  1.28786636E-02  2.40816900E-02  0.00000000E+00  0.00000000E+00 -2.35069117E-01
 -4.62667967E-02  0.00000000E+00  0.00000000E+00 -7.36064840E-01 -9.50112144E-01
  0.00000000E+00  0.00000000E+00  1.56670600E+00  4.60701229E-03  0.00000000E+00
  0.00000000E+00  1.77472695E-02  0.00000000E+00  3.37273496E-02  5.73785687E-01
  1.15528236E-01  0.00000000E+00 -1.51928692E-01  9.92921218E-02  3.37273496E-02
  5.73785687E-01  1.15528236E-01  0.00000000E+00  1.51928692E-01  9.92921218E-02
  0.00000000E+00  0.00000000E+00 -2.39401021E-01  0.00000000E+00  0.00000000E+00
  0.00000000E+00 -8.36012276E-01  0.00000000E+00  0.00000000E+00  0.00000000E+00
  1.15633527E+00  0.00000000E+00  0.00000000E+00  0.00000000E+00  8.39344420E-03
  0.00000000E+00  0.00000000E+00  0.00000000E+00  0.00000000E+00  0.00000000E+00
  0.00000000E+00 -2.77177390E-02  0.00000000E+00  0.00000000E+00  0.00000000E+00
  0.00000000E+00  0.00000000E+00 -2.77177390E-02  0.00000000E+00  0.00000000E+00
  0.00000000E+00  0.00000000E+00  0.00000000E+00 -2.41040331E-01  0.00000000E+00
  0.00000000E+00  0.00000000E+00 -7.04845847E-01  0.00000000E+00  0.00000000E+00
  0.00000000E+00  1.80296312E+00  0.00000000E+00  0.00000000E+00  0.00000000E+00
 -3.18384937E-02  0.00000000E+00  0.00000000E+00 -1.96742963E-02 -3.47550925E-01
 -8.00939909E-01  0.00000000E+00  1.74631135E-01 -1.45603039E-01  1.96742963E-02
  3.47550925E-01  8.00939909E-01  0.00000000E+00  1.74631135E-01  1.45603039E-01
  9.97518032E-02  2.04224572E-01  0.00000000E+00  0.00000000E+00  2.79935692E-02
 -1.48621011E+00  0.00000000E+00  0.00000000E+00 -1.78098199E-01  3.18974284E+00
  0.00000000E+00  0.00000000E+00 -5.86646741E-01  2.80467387E-02  0.00000000E+00
  0.00000000E+00 -2.50235902E-02  0.00000000E+00  8.85426677E-03 -8.86395964E-01
 -3.57012075E-01  0.00000000E+00  1.84246613E-01 -3.68792591E-01  8.85426677E-03
 -8.86395964E-01 -3.57012075E-01  0.00000000E+00 -1.84246613E-01 -3.68792591E-01
  3.34377072E-02  6.93352936E-02  0.00000000E+00  0.00000000E+00 -1.48541751E-02
 -5.85076438E-01  0.00000000E+00  0.00000000E+00 -1.20247839E-01  2.05732889E+00
  0.00000000E+00  0.00000000E+00 -1.24344701E+00 -1.16712954E-01  0.00000000E+00
  0.00000000E+00 -5.72457296E-02  0.00000000E+00  8.43033315E-02 -1.20394057E+00
  2.93484231E-02  0.00000000E+00  5.97669666E-01  4.28735965E-01  8.43033315E-02
 -1.20394057E+00  2.93484231E-02  0.00000000E+00 -5.97669666E-01  4.28735965E-01
  0.00000000E+00  0.00000000E+00  0.00000000E+00  0.00000000E+00  0.00000000E+00
  0.00000000E+00  0.00000000E+00  0.00000000E+00  0.00000000E+00  0.00000000E+00
  0.00000000E+00  0.00000000E+00  0.00000000E+00  0.00000000E+00  0.00000000E+00
  0.00000000E+00  0.00000000E+00  1.21940426E-01  0.00000000E+00  0.00000000E+00
  0.00000000E+00  6.89658338E-01  0.00000000E+00  0.00000000E+00  0.00000000E+00
  0.00000000E+00  0.00000000E+00 -6.89658338E-01  0.00000000E+00  0.00000000E+00
  0.00000000E+00  0.00000000E+00 -5.29036382E-02  0.00000000E+00  0.00000000E+00
  0.00000000E+00 -7.51853639E-02  0.00000000E+00  0.00000000E+00  0.00000000E+00
 -5.51603559E-01  0.00000000E+00  0.00000000E+00  0.00000000E+00 -1.45469587E-01
  0.00000000E+00  0.00000000E+00  0.00000000E+00  0.00000000E+00  0.00000000E+00
  0.00000000E+00  7.72096375E-01  0.00000000E+00  0.00000000E+00  0.00000000E+00
  0.00000000E+00  0.00000000E+00  7.72096375E-01  0.00000000E+00  0.00000000E+00
  0.00000000E+00  0.00000000E+00  0.00000000E+00 -1.52420248E-02  0.00000000E+00
  0.00000000E+00  0.00000000E+00 -2.82873139E-02  0.00000000E+00  0.00000000E+00
  0.00000000E+00  9.50106716E-01  0.00000000E+00  0.00000000E+00  0.00000000E+00
 -7.90494772E-02  0.00000000E+00  0.00000000E+00  1.90527356E-01 -7.87141255E-01
  1.60201877E-01  0.00000000E+00 -4.80863104E-01 -6.51181243E-01 -1.90527356E-01
  7.87141255E-01 -1.60201877E-01  0.00000000E+00 -4.80863104E-01  6.51181243E-01
  0.00000000E+00  0.00000000E+00  0.00000000E+00  1.76628579E-01  0.00000000E+00
  0.00000000E+00  0.00000000E+00  4.67881177E-01  0.00000000E+00  0.00000000E+00
  0.00000000E+00 -2.70311325E-02  0.00000000E+00  0.00000000E+00  0.00000000E+00
  2.52712731E-01  0.00000000E+00  0.00000000E+00 -7.13433239E-01  7.42755970E-01
 -5.42102659E-01  0.00000000E+00  2.49100659E-01 -4.67052327E-01  7.13433239E-01
 -7.42755970E-01  5.42102659E-01  0.00000000E+00  2.49100659E-01  4.67052327E-01
 -2.41285848E-02 -4.20492753E-02  0.00000000E+00  0.00000000E+00 -1.60500758E-01
  1.43203028E-01  0.00000000E+00  0.00000000E+00 -1.59058358E-01 -4.18223338E-01
  0.00000000E+00  0.00000000E+00  3.29332157E-01 -7.60877848E-02  0.00000000E+00
  0.00000000E+00  2.93185615E-01  0.00000000E+00 -9.42345666E-01  1.34199396E+00
 -4.31470248E-01  0.00000000E+00  1.73359974E-01 -3.27146020E-02 -9.42345666E-01
  1.34199396E+00 -4.31470248E-01  0.00000000E+00 -1.73359974E-01 -3.27146020E-02
  6.00768805E-02  1.40451342E-01  0.00000000E+00  0.00000000E+00  3.96621345E-02
 -1.00836925E+00  0.00000000E+00  0.00000000E+00  7.20454824E-01 -1.83807739E+00
  0.00000000E+00  0.00000000E+00  7.33315442E-01  4.78727472E-02  0.00000000E+00
  0.00000000E+00 -3.21342034E-02  0.00000000E+00 -4.31582941E-01  1.90369931E+00
 -2.16731401E-01  0.00000000E+00 -9.62917016E-01  6.78067391E-01 -4.31582941E-01
  1.90369931E+00 -2.16731401E-01  0.00000000E+00  9.62917016E-01  6.78067391E-01
  0.00000000E+00  0.00000000E+00  0.00000000E+00 -1.51232514E-02  0.00000000E+00
  0.00000000E+00  0.00000000E+00 -9.70817030E-01  0.00000000E+00  0.00000000E+00
  0.00000000E+00 -7.33681408E-01  0.00000000E+00  0.00000000E+00  0.00000000E+00
  2.38238380E-01  0.00000000E+00  0.00000000E+00 -7.28609707E-01  2.13123470E+00
 -5.01796054E-01  0.00000000E+00 -9.50151159E-01  6.88295314E-01  7.28609707E-01
 -2.13123470E+00  5.01796054E-01  0.00000000E+00 -9.50151159E-01 -6.88295314E-01
  0.00000000E+00  0.00000000E+00 -2.38321797E-02  0.00000000E+00  0.00000000E+00
  0.00000000E+00  9.40021609E-03  0.00000000E+00  0.00000000E+00  0.00000000E+00
 -2.75130063E-01  0.00000000E+00  0.00000000E+00  0.00000000E+00  1.03727554E+00
  0.00000000E+00  0.00000000E+00  0.00000000E+00  0.00000000E+00  0.00000000E+00
  0.00000000E+00  3.66709375E-01  0.00000000E+00  0.00000000E+00  0.00000000E+00
  0.00000000E+00  0.00000000E+00  3.66709375E-01  0.00000000E+00  0.00000000E+00
  0.00000000E+00  0.00000000E+00  0.00000000E+00  0.00000000E+00  0.00000000E+00
  0.00000000E+00  0.00000000E+00  0.00000000E+00  0.00000000E+00  0.00000000E+00
  0.00000000E+00  0.00000000E+00  0.00000000E+00  0.00000000E+00  0.00000000E+00
  0.00000000E+00  0.00000000E+00  1.06012834E+00  0.00000000E+00  0.00000000E+00
  0.00000000E+00 -3.51261057E-01  0.00000000E+00  0.00000000E+00  0.00000000E+00
  0.00000000E+00  0.00000000E+00  3.51261057E-01  0.00000000E+00  0.00000000E+00
 -2.67545193E-03 -5.46137389E-03  0.00000000E+00  0.00000000E+00 -5.93963925E-02
 -2.86003835E-02  0.00000000E+00  0.00000000E+00 -5.11576294E-02  8.65462785E-01
  0.00000000E+00  0.00000000E+00 -6.78232738E-01  1.08346351E+00  0.00000000E+00
  0.00000000E+00  7.70378528E-02  0.00000000E+00 -2.70217244E-02 -5.75194723E-01
  2.85026377E-02  0.00000000E+00  4.25412227E-01  2.32108441E-01 -2.70217244E-02
 -5.75194723E-01  2.85026377E-02  0.00000000E+00 -4.25412227E-01  2.32108441E-01
 -2.46258621E-02 -4.96950960E-02  0.00000000E+00  0.00000000E+00 -3.17247672E-01
  1.88200784E-01  0.00000000E+00  0.00000000E+00 -1.31770874E-01  1.99899602E+00
  0.00000000E+00  0.00000000E+00 -8.93997747E-01  4.55334355E-02  0.00000000E+00
  0.00000000E+00 -1.12488079E+00  0.00000000E+00 -3.52373011E-01 -1.03611063E+00
 -5.96548901E-02  0.00000000E+00  5.59822948E-01 -4.82666349E-01 -3.52373011E-01
 -1.03611063E+00 -5.96548901E-02  0.00000000E+00 -5.59822948E-01 -4.82666349E-01
  0.00000000E+00  0.00000000E+00  0.00000000E+00 -4.67570519E-01  0.00000000E+00
  0.00000000E+00  0.00000000E+00  2.79069436E-02  0.00000000E+00  0.00000000E+00
  0.00000000E+00 -9.22024024E-01  0.00000000E+00  0.00000000E+00  0.00000000E+00
  1.14885004E+00  0.00000000E+00  0.00000000E+00  4.41580312E-01  4.83716525E-01
  2.44655494E-01  0.00000000E+00 -4.67455855E-01  3.39394276E-01 -4.41580312E-01
 -4.83716525E-01 -2.44655494E-01  0.00000000E+00 -4.67455855E-01 -3.39394276E-01
  0.00000000E+00  0.00000000E+00 -1.27076044E+00  0.00000000E+00  0.00000000E+00
  0.00000000E+00  1.37565137E+00  0.00000000E+00  0.00000000E+00  0.00000000E+00
 -4.75971210E-01  0.00000000E+00  0.00000000E+00  0.00000000E+00 -3.33250961E-02
  0.00000000E+00  0.00000000E+00  0.00000000E+00  0.00000000E+00  0.00000000E+00
  0.00000000E+00 -6.59656061E-02  0.00000000E+00  0.00000000E+00  0.00000000E+00
  0.00000000E+00  0.00000000E+00 -6.59656061E-02  0.00000000E+00  0.00000000E+00
  2.40809195E-02  4.56114597E-02  0.00000000E+00  0.00000000E+00 -1.25920585E+00
 -2.63178650E-01  0.00000000E+00  0.00000000E+00  1.73344062E+00 -1.05981280E+00
  0.00000000E+00  0.00000000E+00 -7.83295428E-02 -9.71166191E-02  0.00000000E+00
  0.00000000E+00  3.75333661E-01  0.00000000E+00  3.06803375E-01  5.22024342E-01
  1.48494220E-02  0.00000000E+00 -4.84189481E-01  2.66714294E-01  3.06803375E-01
  5.22024342E-01  1.48494220E-02  0.00000000E+00  4.84189481E-01  2.66714294E-01
  0.00000000E+00  0.00000000E+00  0.00000000E+00 -1.25466508E+00  0.00000000E+00
  0.00000000E+00  0.00000000E+00  2.05704627E+00  0.00000000E+00  0.00000000E+00
  0.00000000E+00 -1.30637045E-01  0.00000000E+00  0.00000000E+00  0.00000000E+00
 -6.78365987E-01  0.00000000E+00  0.00000000E+00 -3.98320978E-01 -5.12027239E-01
  1.45430434E-01  0.00000000E+00  5.47328452E-01 -4.76316273E-01  3.98320978E-01
  5.12027239E-01 -1.45430434E-01  0.00000000E+00  5.47328452E-01  4.76316273E-01
 -2.24731836E+00  2.33738150E+00  0.00000000E+00  0.00000000E+00 -1.93305925E-02
 -2.74083888E-01  0.00000000E+00  0.00000000E+00  7.71571733E-02  5.63843457E-02
  0.00000000E+00  0.00000000E+00  1.57762407E-02 -3.33803494E-03  0.00000000E+00
  0.00000000E+00  2.82023791E-02  0.00000000E+00  8.74096005E-03  7.78007230E-02
 -3.11396608E-02  0.00000000E+00 -6.57576146E-02  4.81188256E-02  8.74096005E-03
  7.78007230E-02 -3.11396608E-02  0.00000000E+00  6.57576146E-02  4.81188256E-02
Orthonormal basis                          R   N=         900
  5.47579764E-02  5.76657978E-02  0.00000000E+00  0.00000000E+00 -3.42147309E-02
  1.48395803E-01  0.00000000E+00  0.00000000E+00 -7.38352650E-02  1.89692965E-01
  0.00000000E+00  0.00000000E+00 -9.30296965E-02  5.57607975E-03  0.00000000E+00
  0.00000000E+00 -1.75127457E-02  0.00000000E+00  1.01975052E-01  1.63126035E-01
  1.65387211E-01  0.00000000E+00 -7.07449322E-02  2.00515506E-02  1.01975052E-01
  1.63126035E-01  1.65387211E-01  0.00000000E+00  7.07449322E-02  2.00515506E-02
  2.31455537E-01  2.36829623E-01  0.00000000E+00  0.00000000E+00  1.88103102E-01
  1.99660763E-01  0.00000000E+00  0.00000000E+00  2.85856295E-01  1.30614198E-01
  0.00000000E+00  0.00000000E+00  2.81660354E-01 -5.83940432E-02  0.00000000E+00
  0.00000000E+00 -1.77881512E-02  0.00000000E+00 -7.27399995E-02 -4.09678408E-02
  9.56998914E-03  0.00000000E+00  5.52237915E-02  1.46419919E-01 -7.27399995E-02
 -4.09678408E-02  9.56998914E-03  0.00000000E+00 -5.52237915E-02  1.46419919E-01
 -2.95271865E-01 -2.98084392E-01  0.00000000E+00  0.00000000E+00  2.11661069E-01
 -1.10900919E-01  0.00000000E+00  0.00000000E+00  2.48250792E-01  8.39456395E-02
  0.00000000E+00  0.00000000E+00  1.04667594E-01 -6.04706988E-02  0.00000000E+00
  0.00000000E+00 -3.59396715E-02  0.00000000E+00  6.43693275E-02  9.75273527E-02
  1.68173275E-01  0.00000000E+00  2.19525582E-01 -1.51044586E-02  6.43693275E-02
  9.75273527E-02  1.68173275E-01  0.00000000E+00 -2.19525582E-01 -1.51044586E-02
 -2.26794213E-01 -2.19558157E-01  0.00000000E+00  0.00000000E+00 -2.33385367E-01
  1.14935438E-01  0.00000000E+00  0.00000000E+00 -1.57050134E-01  7.77068128E-02
  0.00000000E+00  0.00000000E+00  1.24332673E-01 -2.80222940E-01  0.00000000E+00
  0.00000000E+00 -2.78689330E-01  0.00000000E+00  1.36709609E-02 -4.57248654E-02
 -9.15062069E-02  0.00000000E+00 -6.46677752E-02  3.78989074E-01  1.36709609E-02
 -4.57248654E-02 -9.15062069E-02  0.00000000E+00  6.46677752E-02  3.78989074E-01
  2.69772999E-01  2.56507592E-01  0.00000000E+00  0.00000000E+00 -8.41536050E-02
 -2.08937286E-01  0.00000000E+00  0.00000000E+00 -1.04378953E-01 -1.89894897E-01
  0.00000000E+00  0.00000000E+00 -1.86511208E-01 -3.49426681E-01  0.00000000E+00
  0.00000000E+00 -2.44153431E-01  0.00000000E+00  1.65319622E-01  6.78201012E-02
 -4.42906973E-03  0.00000000E+00  3.41884662E-01  2.97595851E-02  1.65319622E-01
  6.78201012E-02 -4.42906973E-03  0.00000000E+00 -3.41884662E-01  2.97595851E-02
 -1.54527562E-02 -1.35451197E-02  0.00000000E+00  0.00000000E+00 -2.23586882E-01
  1.31716626E-02  0.00000000E+00  0.00000000E+00 -9.46865313E-02  6.50984065E-02
  0.00000000E+00  0.00000000E+00  1.56734184E-02 -5.04056068E-01  0.00000000E+00
  0.00000000E+00  7.05779059E-01  0.00000000E+00 -1.89031260E-01 -3.47068226E-03
  1.21140910E-01  0.00000000E+00  8.24031553E-02  1.46071200E-02 -1.89031260E-01
 -3.47068226E-03  1.21140910E-01  0.00000000E+00 -8.24031553E-02  1.46071200E-02