 Entering Gaussian System, Link 0=g16
 Input=h2o_gaussian.gjf
 Output=h2o_gaussian.log
 Initial command:
 /usr/local/g16/l1.exe "/scratch/lme/Gau-1220052.inp" -scrdir="/scratch/lme/"
 Entering Link 1 = /usr/local/g16/l1.exe PID=   1220054.
  
 Copyright (c) 1988,1990,1992,1993,1995,1998,2003,2009,2016,
            Gaussian, Inc.  All Rights Reserved.
  
 This is part of the Gaussian(R) 16 program.  It is based on
 the Gaussian(R) 09 system (copyright 2009, Gaussian, Inc.),
 the Gaussian(R) 03 system (copyright 2003, Gaussian, Inc.),
 the Gaussian(R) 98 system (copyright 1998, Gaussian, Inc.),
 the Gaussian(R) 94 system (copyright 1995, Gaussian, Inc.),
 the Gaussian 92(TM) system (copyright 1992, Gaussian, Inc.),
 the Gaussian 90(TM) system (copyright 1990, Gaussian, Inc.),
 the Gaussian 88(TM) system (copyright 1988, Gaussian, Inc.),
 the Gaussian 86(TM) system (copyright 1986, Carnegie Mellon
 University), and the Gaussian 82(TM) system (copyright 1983,
 Carnegie Mellon University). Gaussian is a federally registered
 trademark of Gaussian, Inc.
  
 This software contains proprietary and confidential information,
 including trade secrets, belonging to Gaussian, Inc.
  
 This software is provided under written license and may be
 used, copied, transmitted, or stored only in accord with that
 written license.
  
 The following legend is applicable only to US Government
 contracts under FAR:
  
                    RESTRICTED RIGHTS LEGEND
  
 Use, reproduction and disclosure by the US Government is
 subject to restrictions as set forth in subparagraphs (a)
 and (c) of the Commercial Computer Software - Restricted
 Rights clause in FAR 52.227-19.
  
 Gaussian, Inc.
 340 Quinnipiac St., Bldg. 40, Wallingford CT 06492
  
  
 ---------------------------------------------------------------
 Warning -- This program may not be used in any manner that
 competes with the business of Gaussian, Inc. or will provide
 assistance to any competitor of Gaussian, Inc.  The licensee
 of this program is prohibited from giving any competitor of
 Gaussian, Inc. access to this program.  By using this program,
 the user acknowledges that Gaussian, Inc. is engaged in the
 business of creating and licensing software in the field of
 computational chemistry and represents and warrants to the
 licensee that it is not a competitor of Gaussian, Inc. and that
 it will not use this program in any manner prohibited above.
 ---------------------------------------------------------------
  

 Cite this work as:
 Gaussian 16, Revision A.03,
 M. J. Frisch, G. W. Trucks, H. B. Schlegel, G. E. Scuseria, 
 M. A. Robb, J. R. Cheeseman, G. Scalmani, V. Barone, 
 G. A. Petersson, H. Nakatsuji, X. Li, M. Caricato, A. V. Marenich, 
 J. Bloino, B. G. Janesko, R. Gomperts, B. Mennucci, H. P. Hratchian, 
 J. V. Ortiz, A. F. Izmaylov, J. L. Sonnenberg, D. Williams-Young, 
 F. Ding, F. Lipparini, F. Egidi, J. Goings, B. Peng, A. Petrone, 
 T. Henderson, D. Ranasinghe, V. G. Zakrzewski, J. Gao, N. Rega, 
 G. Zheng, W. Liang, M. Hada, M. Ehara, K. Toyota, R. Fukuda, 
 J. Hasegawa, M. Ishida, T. Nakajima, Y. Honda, O. Kitao, H. Nakai, 
 T. Vreven, K. Throssell, J. A. Montgomery, Jr., J. E. Peralta, 
 F. Ogliaro, M. J. Bearpark, J. J. Heyd, E. N. Brothers, K. N. Kudin, 
 V. N. Staroverov, T. A. Keith, R. Kobayashi, J. Normand, 
 K. Raghavachari, A. P. Rendell, J. C. Burant, S. S. Iyengar, 
 J. Tomasi, M. Cossi, J. M. Millam, M. Klene, C. Adamo, R. Cammi, 
 J. W. Ochterski, R. L. Martin, K. Morokuma, O. Farkas, 
 J. B. Foresman, and D. J. Fox, Gaussian, Inc., Wallingford CT, 2016.
 
 ******************************************
 Gaussian 16:  ES64L-G16RevA.03 25-Dec-2016
                11-Sep-2024 
 ******************************************
 %chk=h2o_gaussian.chk
 --------------------------
 #p opt freq hf/6-311g(d,p)
 --------------------------
 1/18=20,19=15,38=1/1,3;
 2/9=110,12=2,17=6,18=5,40=1/2;
 3/5=4,6=6,7=101,11=9,25=1,30=1,71=1/1,2,3;
 4//1;
 5/5=2,38=5/2;
 6/7=2,8=2,9=2,10=2,28=1/1;
 7//1,2,3,16;
 1/18=20,19=15/3(2);
 2/9=110/2;
 99//99;
 2/9=110/2;
 3/5=4,6=6,7=101,11=9,25=1,30=1,71=1/1,2,3;
 4/5=5,16=3,69=1/1;
 5/5=2,38=5/2;
 7//1,2,3,16;
 1/18=20,19=15/3(-5);
 2/9=110/2;
 6/7=2,8=2,9=2,10=2,19=2,28=1/1;
 99/9=1/99;
 Leave Link    1 at Wed Sep 11 12:44:07 2024, MaxMem=           0 cpu:               0.0 elap:               0.0
 (Enter /usr/local/g16/l101.exe)
 -------------------
 Title Card Required
 -------------------
 Symbolic Z-matrix:
 Charge =  0 Multiplicity = 1
 O
 H                    1    rOH
 H                    1    rOH      2    aHOH
       Variables:
  rOH                   0.96                     
  aHOH                104.5                      
 
 ITRead=  0  0  0
 MicOpt= -1 -1 -1
 NAtoms=      3 NQM=        3 NQMF=       0 NMMI=      0 NMMIF=      0
                NMic=       0 NMicF=      0.
                    Isotopes and Nuclear Properties:
 (Nuclear quadrupole moments (NQMom) in fm**2, nuclear magnetic moments (NMagM)
  in nuclear magnetons)

  Atom         1           2           3
 IAtWgt=          16           1           1
 AtmWgt=  15.9949146   1.0078250   1.0078250
 NucSpn=           0           1           1
 AtZEff=  -0.0000000  -0.0000000  -0.0000000
 NQMom=    0.0000000   0.0000000   0.0000000
 NMagM=    0.0000000   2.7928460   2.7928460
 AtZNuc=   8.0000000   1.0000000   1.0000000
 Leave Link  101 at Wed Sep 11 12:44:07 2024, MaxMem=   104857600 cpu:               0.1 elap:               0.1
 (Enter /usr/local/g16/l103.exe)

 GradGradGradGradGradGradGradGradGradGradGradGradGradGradGradGradGradGrad
 Berny optimization.
 Initialization pass.
                           ----------------------------
                           !    Initial Parameters    !
                           ! (Angstroms and Degrees)  !
 --------------------------                            --------------------------
 ! Name  Definition              Value          Derivative Info.                !
 --------------------------------------------------------------------------------
 ! R1    R(1,2)                  0.96           estimate D2E/DX2                !
 ! R2    R(1,3)                  0.96           estimate D2E/DX2                !
 ! A1    A(2,1,3)              104.5            estimate D2E/DX2                !
 --------------------------------------------------------------------------------
 Trust Radius=3.00D-01 FncErr=1.00D-07 GrdErr=1.00D-07 EigMax=2.50D+02 EigMin=1.00D-04
 Number of steps in this run=     20 maximum allowed number of steps=    100.
 GradGradGradGradGradGradGradGradGradGradGradGradGradGradGradGradGradGrad

 Leave Link  103 at Wed Sep 11 12:44:07 2024, MaxMem=   104857600 cpu:               0.0 elap:               0.0
 (Enter /usr/local/g16/l202.exe)
                          Input orientation:                          
 ---------------------------------------------------------------------
 Center     Atomic      Atomic             Coordinates (Angstroms)
 Number     Number       Type             X           Y           Z
 ---------------------------------------------------------------------
      1          8           0        0.000000    0.000000    0.000000
      2          1           0        0.000000    0.000000    0.960000
      3          1           0        0.929422    0.000000   -0.240365
 ---------------------------------------------------------------------
                    Distance matrix (angstroms):
                    1          2          3
     1  O    0.000000
     2  H    0.960000   0.000000
     3  H    0.960000   1.518124   0.000000
 Stoichiometry    H2O
 Framework group  C2V[C2(O),SGV(H2)]
 Deg. of freedom     2
 Full point group                 C2V     NOp   4
 Largest Abelian subgroup         C2V     NOp   4
 Largest concise Abelian subgroup C2      NOp   2
                         Standard orientation:                         
 ---------------------------------------------------------------------
 Center     Atomic      Atomic             Coordinates (Angstroms)
 Number     Number       Type             X           Y           Z
 ---------------------------------------------------------------------
      1          8           0        0.000000    0.000000    0.117546
      2          1           0       -0.000000    0.759062   -0.470183
      3          1           0       -0.000000   -0.759062   -0.470183
 ---------------------------------------------------------------------
 Rotational constants (GHZ):         817.3232083         435.1585997         283.9683743
 Leave Link  202 at Wed Sep 11 12:44:07 2024, MaxMem=   104857600 cpu:               0.0 elap:               0.0
 (Enter /usr/local/g16/l301.exe)
 Standard basis: 6-311G(d,p) (5D, 7F)
 Ernie: Thresh=  0.10000D-02 Tol=  0.10000D-05 Strict=F.
 There are    15 symmetry adapted cartesian basis functions of A1  symmetry.
 There are     2 symmetry adapted cartesian basis functions of A2  symmetry.
 There are     5 symmetry adapted cartesian basis functions of B1  symmetry.
 There are     9 symmetry adapted cartesian basis functions of B2  symmetry.
 There are    14 symmetry adapted basis functions of A1  symmetry.
 There are     2 symmetry adapted basis functions of A2  symmetry.
 There are     5 symmetry adapted basis functions of B1  symmetry.
 There are     9 symmetry adapted basis functions of B2  symmetry.
    30 basis functions,    48 primitive gaussians,    31 cartesian basis functions
     5 alpha electrons        5 beta electrons
       nuclear repulsion energy         9.1681933008 Hartrees.
 IExCor=    0 DFT=F Ex=HF Corr=None ExCW=0 ScaHFX=  1.000000
 ScaDFX=  1.000000  1.000000  1.000000  1.000000 ScalE2=  1.000000  1.000000
 IRadAn=      5 IRanWt=     -1 IRanGd=            0 ICorTp=0 IEmpDi=  4
 NAtoms=    3 NActive=    3 NUniq=    2 SFac= 2.25D+00 NAtFMM=   60 NAOKFM=F Big=F
 Integral buffers will be    131072 words long.
 Raffenetti 1 integral format.
 Two-electron integral symmetry is turned on.
 Leave Link  301 at Wed Sep 11 12:44:07 2024, MaxMem=   104857600 cpu:               0.0 elap:               0.0
 (Enter /usr/local/g16/l302.exe)
 NPDir=0 NMtPBC=     1 NCelOv=     1 NCel=       1 NClECP=     1 NCelD=      1
         NCelK=      1 NCelE2=     1 NClLst=     1 CellRange=     0.0.
 One-electron integrals computed using PRISM.
 One-electron integral symmetry used in STVInt
 NBasis=    30 RedAO= T EigKep=  1.81D-02  NBF=    14     2     5     9
 NBsUse=    30 1.00D-06 EigRej= -1.00D+00 NBFU=    14     2     5     9
 Leave Link  302 at Wed Sep 11 12:44:07 2024, MaxMem=   104857600 cpu:               0.1 elap:               0.1
 (Enter /usr/local/g16/l303.exe)
 DipDrv:  MaxL=1.
 Leave Link  303 at Wed Sep 11 12:44:07 2024, MaxMem=   104857600 cpu:               0.0 elap:               0.0
 (Enter /usr/local/g16/l401.exe)
 ExpMin= 1.03D-01 ExpMax= 8.59D+03 ExpMxC= 1.30D+03 IAcc=3 IRadAn=         5 AccDes= 0.00D+00
 Harris functional with IExCor=  205 and IRadAn=       5 diagonalized for initial guess.
 HarFok:  IExCor=  205 AccDes= 0.00D+00 IRadAn=         5 IDoV= 1 UseB2=F ITyADJ=14
 ICtDFT=  3500011 ScaDFX=  1.000000  1.000000  1.000000  1.000000
 FoFCou: FMM=F IPFlag=           0 FMFlag=      100000 FMFlg1=           0
         NFxFlg=           0 DoJE=T BraDBF=F KetDBF=T FulRan=T
         wScrn=  0.000000 ICntrl=       500 IOpCl=  0 I1Cent=   200000004 NGrid=           0
         NMat0=    1 NMatS0=      1 NMatT0=    0 NMatD0=    1 NMtDS0=    0 NMtDT0=    0
 Petite list used in FoFCou.
 Harris En= -76.1424193508640    
 JPrj=0 DoOrth=F DoCkMO=F.
 Initial guess orbital symmetries:
       Occupied  (A1) (A1) (B2) (A1) (B1)
       Virtual   (A1) (B2) (B2) (A1) (A1) (B1) (B2) (A1) (A1) (A2)
                 (B1) (B2) (B2) (A1) (A1) (B2) (B1) (A2) (A1) (A1)
                 (B2) (B1) (A1) (B2) (A1)
 The electronic state of the initial guess is 1-A1.
 Leave Link  401 at Wed Sep 11 12:44:07 2024, MaxMem=   104857600 cpu:               0.1 elap:               0.1
 (Enter /usr/local/g16/l502.exe)
 Keep R1 ints in memory in symmetry-blocked form, NReq=940707.
 FoFCou: FMM=F IPFlag=           0 FMFlag=           0 FMFlg1=           0
         NFxFlg=           0 DoJE=F BraDBF=F KetDBF=F FulRan=T
         wScrn=  0.000000 ICntrl=       600 IOpCl=  0 I1Cent=           0 NGrid=           0
         NMat0=    1 NMatS0=    465 NMatT0=    0 NMatD0=    1 NMtDS0=    0 NMtDT0=    0
 Petite list used in FoFCou.
 Closed shell SCF:
 Using DIIS extrapolation, IDIIS=  1040.
 NGot=   104857600 LenX=   104822859 LenY=   104821457
 Requested convergence on RMS density matrix=1.00D-08 within 128 cycles.
 Requested convergence on MAX density matrix=1.00D-06.
 Requested convergence on             energy=1.00D-06.
 No special actions if energy rises.

 Cycle   1  Pass 1  IDiag  1:
 E= -75.9521919569589    
 DIIS: error= 8.43D-02 at cycle   1 NSaved=   1.
 NSaved= 1 IEnMin= 1 EnMin= -75.9521919569589     IErMin= 1 ErrMin= 8.43D-02
 ErrMax= 8.43D-02  0.00D+00 EMaxC= 1.00D-01 BMatC= 2.12D-01 BMatP= 2.12D-01
 IDIUse=3 WtCom= 1.57D-01 WtEn= 8.43D-01
 Coeff-Com:  0.100D+01
 Coeff-En:   0.100D+01
 Coeff:      0.100D+01
 Gap=     0.524 Goal=   None    Shift=    0.000
 GapD=    0.524 DampG=2.000 DampE=0.500 DampFc=1.0000 IDamp=-1.
 RMSDP=8.24D-03 MaxDP=8.71D-02              OVMax= 1.29D-01

 Cycle   2  Pass 1  IDiag  1:
 E= -76.0139159255358     Delta-E=       -0.061723968577 Rises=F Damp=F
 DIIS: error= 4.37D-02 at cycle   2 NSaved=   2.
 NSaved= 2 IEnMin= 2 EnMin= -76.0139159255358     IErMin= 2 ErrMin= 4.37D-02
 ErrMax= 4.37D-02  0.00D+00 EMaxC= 1.00D-01 BMatC= 5.26D-02 BMatP= 2.12D-01
 IDIUse=3 WtCom= 5.63D-01 WtEn= 4.37D-01
 Coeff-Com:  0.307D+00 0.693D+00
 Coeff-En:   0.126D+00 0.874D+00
 Coeff:      0.228D+00 0.772D+00
 Gap=     0.676 Goal=   None    Shift=    0.000
 RMSDP=4.43D-03 MaxDP=5.73D-02 DE=-6.17D-02 OVMax= 5.31D-02

 Cycle   3  Pass 1  IDiag  1:
 E= -76.0442545019983     Delta-E=       -0.030338576462 Rises=F Damp=F
 DIIS: error= 1.29D-02 at cycle   3 NSaved=   3.
 NSaved= 3 IEnMin= 3 EnMin= -76.0442545019983     IErMin= 3 ErrMin= 1.29D-02
 ErrMax= 1.29D-02  0.00D+00 EMaxC= 1.00D-01 BMatC= 3.16D-03 BMatP= 5.26D-02
 IDIUse=3 WtCom= 8.71D-01 WtEn= 1.29D-01
 Coeff-Com: -0.244D-01 0.169D+00 0.855D+00
 Coeff-En:   0.000D+00 0.000D+00 0.100D+01
 Coeff:     -0.212D-01 0.147D+00 0.874D+00
 Gap=     0.645 Goal=   None    Shift=    0.000
 RMSDP=8.33D-04 MaxDP=8.55D-03 DE=-3.03D-02 OVMax= 1.39D-02

 Cycle   4  Pass 1  IDiag  1:
 E= -76.0462169561946     Delta-E=       -0.001962454196 Rises=F Damp=F
 DIIS: error= 1.20D-03 at cycle   4 NSaved=   4.
 NSaved= 4 IEnMin= 4 EnMin= -76.0462169561946     IErMin= 4 ErrMin= 1.20D-03
 ErrMax= 1.20D-03  0.00D+00 EMaxC= 1.00D-01 BMatC= 2.87D-05 BMatP= 3.16D-03
 IDIUse=3 WtCom= 9.88D-01 WtEn= 1.20D-02
 Coeff-Com:  0.441D-02-0.655D-01-0.196D+00 0.126D+01
 Coeff-En:   0.000D+00 0.000D+00 0.000D+00 0.100D+01
 Coeff:      0.436D-02-0.647D-01-0.193D+00 0.125D+01
 Gap=     0.649 Goal=   None    Shift=    0.000
 RMSDP=1.41D-04 MaxDP=2.03D-03 DE=-1.96D-03 OVMax= 1.87D-03

 Cycle   5  Pass 1  IDiag  1:
 E= -76.0462441045229     Delta-E=       -0.000027148328 Rises=F Damp=F
 DIIS: error= 1.87D-04 at cycle   5 NSaved=   5.
 NSaved= 5 IEnMin= 5 EnMin= -76.0462441045229     IErMin= 5 ErrMin= 1.87D-04
 ErrMax= 1.87D-04  0.00D+00 EMaxC= 1.00D-01 BMatC= 5.05D-07 BMatP= 2.87D-05
 IDIUse=3 WtCom= 9.98D-01 WtEn= 1.87D-03
 Coeff-Com:  0.357D-03 0.223D-02-0.195D-02-0.218D+00 0.122D+01
 Coeff-En:   0.000D+00 0.000D+00 0.000D+00 0.000D+00 0.100D+01
 Coeff:      0.356D-03 0.223D-02-0.194D-02-0.217D+00 0.122D+01
 Gap=     0.649 Goal=   None    Shift=    0.000
 RMSDP=3.23D-05 MaxDP=3.40D-04 DE=-2.71D-05 OVMax= 5.56D-04

 Cycle   6  Pass 1  IDiag  1:
 E= -76.0462450725829     Delta-E=       -0.000000968060 Rises=F Damp=F
 DIIS: error= 2.78D-05 at cycle   6 NSaved=   6.
 NSaved= 6 IEnMin= 6 EnMin= -76.0462450725829     IErMin= 6 ErrMin= 2.78D-05
 ErrMax= 2.78D-05  0.00D+00 EMaxC= 1.00D-01 BMatC= 1.09D-08 BMatP= 5.05D-07
 IDIUse=1 WtCom= 1.00D+00 WtEn= 0.00D+00
 Coeff-Com: -0.176D-03 0.884D-03 0.453D-02 0.216D-01-0.314D+00 0.129D+01
 Coeff:     -0.176D-03 0.884D-03 0.453D-02 0.216D-01-0.314D+00 0.129D+01
 Gap=     0.649 Goal=   None    Shift=    0.000
 RMSDP=7.01D-06 MaxDP=7.06D-05 DE=-9.68D-07 OVMax= 1.23D-04

 Cycle   7  Pass 1  IDiag  1:
 E= -76.0462451025786     Delta-E=       -0.000000029996 Rises=F Damp=F
 DIIS: error= 4.14D-06 at cycle   7 NSaved=   7.
 NSaved= 7 IEnMin= 7 EnMin= -76.0462451025786     IErMin= 7 ErrMin= 4.14D-06
 ErrMax= 4.14D-06  0.00D+00 EMaxC= 1.00D-01 BMatC= 4.52D-10 BMatP= 1.09D-08
 IDIUse=1 WtCom= 1.00D+00 WtEn= 0.00D+00
 Coeff-Com:  0.248D-04-0.347D-03-0.111D-02 0.681D-02 0.115D-01-0.254D+00
 Coeff-Com:  0.124D+01
 Coeff:      0.248D-04-0.347D-03-0.111D-02 0.681D-02 0.115D-01-0.254D+00
 Coeff:      0.124D+01
 Gap=     0.649 Goal=   None    Shift=    0.000
 RMSDP=1.02D-06 MaxDP=9.08D-06 DE=-3.00D-08 OVMax= 2.17D-05

 Cycle   8  Pass 1  IDiag  1:
 E= -76.0462451036202     Delta-E=       -0.000000001042 Rises=F Damp=F
 DIIS: error= 1.57D-06 at cycle   8 NSaved=   8.
 NSaved= 8 IEnMin= 8 EnMin= -76.0462451036202     IErMin= 8 ErrMin= 1.57D-06
 ErrMax= 1.57D-06  0.00D+00 EMaxC= 1.00D-01 BMatC= 2.43D-11 BMatP= 4.52D-10
 IDIUse=1 WtCom= 1.00D+00 WtEn= 0.00D+00
 Coeff-Com:  0.172D-05 0.697D-04 0.135D-03-0.393D-02 0.162D-01 0.674D-02
 Coeff-Com: -0.364D+00 0.134D+01
 Coeff:      0.172D-05 0.697D-04 0.135D-03-0.393D-02 0.162D-01 0.674D-02
 Coeff:     -0.364D+00 0.134D+01
 Gap=     0.649 Goal=   None    Shift=    0.000
 RMSDP=2.17D-07 MaxDP=1.72D-06 DE=-1.04D-09 OVMax= 4.34D-06

 Cycle   9  Pass 1  IDiag  1:
 E= -76.0462451036781     Delta-E=       -0.000000000058 Rises=F Damp=F
 DIIS: error= 1.48D-07 at cycle   9 NSaved=   9.
 NSaved= 9 IEnMin= 9 EnMin= -76.0462451036781     IErMin= 9 ErrMin= 1.48D-07
 ErrMax= 1.48D-07  0.00D+00 EMaxC= 1.00D-01 BMatC= 5.18D-13 BMatP= 2.43D-11
 IDIUse=1 WtCom= 1.00D+00 WtEn= 0.00D+00
 Coeff-Com: -0.879D-06-0.562D-05-0.513D-05 0.600D-03-0.295D-02 0.180D-02
 Coeff-Com:  0.561D-01-0.322D+00 0.127D+01
 Coeff:     -0.879D-06-0.562D-05-0.513D-05 0.600D-03-0.295D-02 0.180D-02
 Coeff:      0.561D-01-0.322D+00 0.127D+01
 Gap=     0.649 Goal=   None    Shift=    0.000
 RMSDP=3.79D-08 MaxDP=3.49D-07 DE=-5.79D-11 OVMax= 6.92D-07

 Cycle  10  Pass 1  IDiag  1:
 E= -76.0462451036793     Delta-E=       -0.000000000001 Rises=F Damp=F
 DIIS: error= 2.33D-08 at cycle  10 NSaved=  10.
 NSaved=10 IEnMin=10 EnMin= -76.0462451036793     IErMin=10 ErrMin= 2.33D-08
 ErrMax= 2.33D-08  0.00D+00 EMaxC= 1.00D-01 BMatC= 1.42D-14 BMatP= 5.18D-13
 IDIUse=1 WtCom= 1.00D+00 WtEn= 0.00D+00
 Coeff-Com:  0.183D-06-0.588D-06-0.248D-05-0.506D-04 0.315D-03-0.781D-03
 Coeff-Com: -0.334D-02 0.397D-01-0.313D+00 0.128D+01
 Coeff:      0.183D-06-0.588D-06-0.248D-05-0.506D-04 0.315D-03-0.781D-03
 Coeff:     -0.334D-02 0.397D-01-0.313D+00 0.128D+01
 Gap=     0.649 Goal=   None    Shift=    0.000
 RMSDP=1.01D-08 MaxDP=1.09D-07 DE=-1.25D-12 OVMax= 1.54D-07

 Cycle  11  Pass 1  IDiag  1:
 E= -76.0462451036794     Delta-E=       -0.000000000000 Rises=F Damp=F
 DIIS: error= 1.54D-09 at cycle  11 NSaved=  11.
 NSaved=11 IEnMin=11 EnMin= -76.0462451036794     IErMin=11 ErrMin= 1.54D-09
 ErrMax= 1.54D-09  0.00D+00 EMaxC= 1.00D-01 BMatC= 1.04D-16 BMatP= 1.42D-14
 IDIUse=1 WtCom= 1.00D+00 WtEn= 0.00D+00
 Coeff-Com: -0.263D-07 0.126D-06 0.389D-06 0.512D-05-0.361D-04 0.147D-03
 Coeff-Com:  0.135D-03-0.575D-02 0.581D-01-0.296D+00 0.124D+01
 Coeff:     -0.263D-07 0.126D-06 0.389D-06 0.512D-05-0.361D-04 0.147D-03
 Coeff:      0.135D-03-0.575D-02 0.581D-01-0.296D+00 0.124D+01
 Gap=     0.649 Goal=   None    Shift=    0.000
 RMSDP=8.49D-10 MaxDP=7.17D-09 DE=-2.84D-14 OVMax= 1.28D-08

 SCF Done:  E(RHF) =  -76.0462451037     A.U. after   11 cycles
            NFock= 11  Conv=0.85D-09     -V/T= 2.0000
 KE= 7.604812258119D+01 PE=-1.991546330562D+02 EE= 3.789207207060D+01
 Leave Link  502 at Wed Sep 11 12:44:07 2024, MaxMem=   104857600 cpu:               0.1 elap:               0.1
 (Enter /usr/local/g16/l601.exe)
 Copying SCF densities to generalized density rwf, IOpCl= 0 IROHF=0.

 **********************************************************************

            Population analysis using the SCF density.

 **********************************************************************

 Orbital symmetries:
       Occupied  (A1) (A1) (B2) (A1) (B1)
       Virtual   (A1) (B2) (B2) (A1) (A1) (B1) (B2) (A1) (A1) (A2)
                 (B1) (B2) (B2) (A1) (A1) (B2) (B1) (A2) (A1) (A1)
                 (B2) (B1) (A1) (B2) (A1)
 The electronic state is 1-A1.
 Alpha  occ. eigenvalues --  -20.54539  -1.33995  -0.70494  -0.57134  -0.49956
 Alpha virt. eigenvalues --    0.14992   0.21670   0.56548   0.61198   0.99940
 Alpha virt. eigenvalues --    1.00373   1.10912   1.31432   1.48951   1.51438
 Alpha virt. eigenvalues --    1.71632   1.91941   2.24532   2.38238   2.59952
 Alpha virt. eigenvalues --    2.77856   3.49337   3.54880   3.71535   4.00955
 Alpha virt. eigenvalues --    4.26062   5.32615   5.74591   6.18627  51.54842
          Condensed to atoms (all electrons):
               1          2          3
     1  O    7.854269   0.322390   0.322390
     2  H    0.322390   0.458862  -0.030776
     3  H    0.322390  -0.030776   0.458862
 Mulliken charges:
               1
     1  O   -0.499049
     2  H    0.249524
     3  H    0.249524
 Sum of Mulliken charges =  -0.00000
 Mulliken charges with hydrogens summed into heavy atoms:
               1
     1  O   -0.000000
 Electronic spatial extent (au):  <R**2>=             18.9598
 Charge=             -0.0000 electrons
 Dipole moment (field-independent basis, Debye):
    X=             -0.0000    Y=             -0.0000    Z=             -2.1687  Tot=              2.1687
 Quadrupole moment (field-independent basis, Debye-Ang):
   XX=             -7.1785   YY=             -4.1333   ZZ=             -6.0001
   XY=              0.0000   XZ=              0.0000   YZ=              0.0000
 Traceless Quadrupole moment (field-independent basis, Debye-Ang):
   XX=             -1.4078   YY=              1.6373   ZZ=             -0.2295
   XY=              0.0000   XZ=              0.0000   YZ=              0.0000
 Octapole moment (field-independent basis, Debye-Ang**2):
  XXX=              0.0000  YYY=              0.0000  ZZZ=             -1.3332  XYY=             -0.0000
  XXY=              0.0000  XXZ=             -0.3481  XZZ=              0.0000  YZZ=              0.0000
  YYZ=             -1.3559  XYZ=             -0.0000
 Hexadecapole moment (field-independent basis, Debye-Ang**3):
 XXXX=             -5.1948 YYYY=             -5.6120 ZZZZ=             -6.1649 XXXY=             -0.0000
 XXXZ=             -0.0000 YYYX=             -0.0000 YYYZ=              0.0000 ZZZX=             -0.0000
 ZZZY=              0.0000 XXYY=             -2.1001 XXZZ=             -1.9508 YYZZ=             -1.6042
 XXYZ=              0.0000 YYXZ=              0.0000 ZZXY=              0.0000
 N-N= 9.168193300756D+00 E-N=-1.991546330611D+02  KE= 7.604812258119D+01
 Symmetry A1   KE= 6.794832943653D+01
 Symmetry A2   KE= 6.488651975496D-34
 Symmetry B1   KE= 4.575194300321D+00
 Symmetry B2   KE= 3.524598844333D+00
 No NMR shielding tensors so no spin-rotation constants.
 Leave Link  601 at Wed Sep 11 12:44:07 2024, MaxMem=   104857600 cpu:               0.1 elap:               0.1
 (Enter /usr/local/g16/l701.exe)
 ... and contract with generalized density number  0.
 Compute integral first derivatives.
 Leave Link  701 at Wed Sep 11 12:44:07 2024, MaxMem=   104857600 cpu:               0.1 elap:               0.1
 (Enter /usr/local/g16/l702.exe)
 L702 exits ... SP integral derivatives will be done elsewhere.
 Leave Link  702 at Wed Sep 11 12:44:07 2024, MaxMem=   104857600 cpu:               0.0 elap:               0.0
 (Enter /usr/local/g16/l703.exe)
 Integral derivatives from FoFJK, PRISM(SPDF).
 Compute integral first derivatives, UseDBF=F ICtDFT=           0.
 Calling FoFJK, ICntrl=      2127 FMM=F ISym2X=1 I1Cent= 0 IOpClX= 0 NMat=1 NMatS=1 NMatT=0.
 FoFJK:  IHMeth= 1 ICntrl=    2127 DoSepK=F KAlg= 0 I1Cent=           0 FoldK=F
 IRaf=         0 NMat=       1 IRICut=       1 DoRegI=T DoRafI=F ISym2E= 1 IDoP0=0 IntGTp=1.
 FoFCou: FMM=F IPFlag=           0 FMFlag=      100000 FMFlg1=         800
         NFxFlg=           0 DoJE=F BraDBF=F KetDBF=F FulRan=T
         wScrn=  0.000000 ICntrl=      2127 IOpCl=  0 I1Cent=           0 NGrid=           0
         NMat0=    1 NMatS0=      1 NMatT0=    0 NMatD0=    1 NMtDS0=    0 NMtDT0=    0
 Petite list used in FoFCou.
 Leave Link  703 at Wed Sep 11 12:44:07 2024, MaxMem=   104857600 cpu:               0.1 elap:               0.1
 (Enter /usr/local/g16/l716.exe)
 Dipole        =-4.22689700D-17 0.00000000D+00-8.53223899D-01
 ***** Axes restored to original set *****
 -------------------------------------------------------------------
 Center     Atomic                   Forces (Hartrees/Bohr)
 Number     Number              X              Y              Z
 -------------------------------------------------------------------
      1        8           0.020613388    0.000000000    0.015960590
      2        1          -0.000476622   -0.000000000   -0.020676008
      3        1          -0.020136766   -0.000000000    0.004715418
 -------------------------------------------------------------------
 Cartesian Forces:  Max     0.020676008 RMS     0.013060123
 Leave Link  716 at Wed Sep 11 12:44:07 2024, MaxMem=   104857600 cpu:               0.0 elap:               0.0
 (Enter /usr/local/g16/l103.exe)

 GradGradGradGradGradGradGradGradGradGradGradGradGradGradGradGradGradGrad
 Berny optimization.
 FormGI is forming the generalized inverse of G from B-inverse, IUseBI=4.
 Internal  Forces:  Max     0.020676008 RMS     0.016889270
 Search for a local minimum.
 Step number   1 out of a maximum of   20
 All quantities printed in internal units (Hartrees-Bohrs-Radians)
 RMS Force = .16889D-01 SwitMx=.10000D-02 MixMth= 1
 Mixed Optimization -- RFO/linear search
 Second derivative matrix not updated -- first step.
 The second derivative matrix:
                          R1        R2        A1
           R1           0.55473
           R2           0.00000   0.55473
           A1           0.00000   0.00000   0.16000
 ITU=  0
     Eigenvalues ---    0.16000   0.55473   0.55473
 RFO step:  Lambda=-1.54162626D-03 EMin= 1.60000000D-01
 Linear search not attempted -- first point.
 Iteration  1 RMS(Cart)=  0.02494661 RMS(Int)=  0.00006484
 Iteration  2 RMS(Cart)=  0.00006483 RMS(Int)=  0.00000000
 Iteration  3 RMS(Cart)=  0.00000000 RMS(Int)=  0.00000000
 ITry= 1 IFail=0 DXMaxC= 2.64D-02 DCOld= 1.00D+10 DXMaxT= 3.00D-01 DXLimC= 3.00D+00 Rises=F
 ClnCor:  largest displacement from symmetrization is 9.42D-16 for atom     3.
 Variable       Old X    -DE/DX   Delta X   Delta X   Delta X     New X
                                 (Linear)    (Quad)   (Total)
    R1        1.81414  -0.02068   0.00000  -0.03717  -0.03717   1.77697
    R2        1.81414  -0.02068   0.00000  -0.03717  -0.03717   1.77697
    A1        1.82387   0.00086   0.00000   0.00535   0.00535   1.82922
         Item               Value     Threshold  Converged?
 Maximum Force            0.020676     0.000450     NO 
 RMS     Force            0.016889     0.000300     NO 
 Maximum Displacement     0.026351     0.001800     NO 
 RMS     Displacement     0.024977     0.001200     NO 
 Predicted change in Energy=-7.729650D-04
 Lowest energy point so far.  Saving SCF results.
 GradGradGradGradGradGradGradGradGradGradGradGradGradGradGradGradGradGrad

 Leave Link  103 at Wed Sep 11 12:44:07 2024, MaxMem=   104857600 cpu:               0.0 elap:               0.0
 (Enter /usr/local/g16/l202.exe)
                          Input orientation:                          
 ---------------------------------------------------------------------
 Center     Atomic      Atomic             Coordinates (Angstroms)
 Number     Number       Type             X           Y           Z
 ---------------------------------------------------------------------
      1          8           0        0.007397   -0.000000    0.005728
      2          1           0        0.004881   -0.000000    0.946056
      3          1           0        0.917143    0.000000   -0.232148
 ---------------------------------------------------------------------
                    Distance matrix (angstroms):
                    1          2          3
     1  O    0.000000
     2  H    0.940331   0.000000
     3  H    0.940331   1.490096   0.000000
 Stoichiometry    H2O
 Framework group  C2V[C2(O),SGV(H2)]
 Deg. of freedom     2
 Full point group                 C2V     NOp   4
 RotChk:  IX=0 Diff= 9.51D-16
 Largest Abelian subgroup         C2V     NOp   4
 Largest concise Abelian subgroup C2      NOp   2
                         Standard orientation:                         
 ---------------------------------------------------------------------
 Center     Atomic      Atomic             Coordinates (Angstroms)
 Number     Number       Type             X           Y           Z
 ---------------------------------------------------------------------
      1          8           0       -0.000000    0.000000    0.114739
      2          1           0        0.000000    0.745048   -0.458956
      3          1           0       -0.000000   -0.745048   -0.458956
 ---------------------------------------------------------------------
 Rotational constants (GHZ):         857.7982496         451.6826688         295.8825877
 Leave Link  202 at Wed Sep 11 12:44:07 2024, MaxMem=   104857600 cpu:               0.0 elap:               0.0
 (Enter /usr/local/g16/l301.exe)
 Standard basis: 6-311G(d,p) (5D, 7F)
 Ernie: Thresh=  0.10000D-02 Tol=  0.10000D-05 Strict=F.
 There are    15 symmetry adapted cartesian basis functions of A1  symmetry.
 There are     2 symmetry adapted cartesian basis functions of A2  symmetry.
 There are     5 symmetry adapted cartesian basis functions of B1  symmetry.
 There are     9 symmetry adapted cartesian basis functions of B2  symmetry.
 There are    14 symmetry adapted basis functions of A1  symmetry.
 There are     2 symmetry adapted basis functions of A2  symmetry.
 There are     5 symmetry adapted basis functions of B1  symmetry.
 There are     9 symmetry adapted basis functions of B2  symmetry.
    30 basis functions,    48 primitive gaussians,    31 cartesian basis functions
     5 alpha electrons        5 beta electrons
       nuclear repulsion energy         9.3592286829 Hartrees.
 IExCor=    0 DFT=F Ex=HF Corr=None ExCW=0 ScaHFX=  1.000000
 ScaDFX=  1.000000  1.000000  1.000000  1.000000 ScalE2=  1.000000  1.000000
 IRadAn=      5 IRanWt=     -1 IRanGd=            0 ICorTp=0 IEmpDi=  4
 NAtoms=    3 NActive=    3 NUniq=    2 SFac= 2.25D+00 NAtFMM=   60 NAOKFM=F Big=F
 Integral buffers will be    131072 words long.
 Raffenetti 1 integral format.
 Two-electron integral symmetry is turned on.
 Leave Link  301 at Wed Sep 11 12:44:07 2024, MaxMem=   104857600 cpu:               0.0 elap:               0.0
 (Enter /usr/local/g16/l302.exe)
 NPDir=0 NMtPBC=     1 NCelOv=     1 NCel=       1 NClECP=     1 NCelD=      1
         NCelK=      1 NCelE2=     1 NClLst=     1 CellRange=     0.0.
 One-electron integrals computed using PRISM.
 One-electron integral symmetry used in STVInt
 NBasis=    30 RedAO= T EigKep=  1.69D-02  NBF=    14     2     5     9
 NBsUse=    30 1.00D-06 EigRej= -1.00D+00 NBFU=    14     2     5     9
 Leave Link  302 at Wed Sep 11 12:44:08 2024, MaxMem=   104857600 cpu:               0.1 elap:               0.1
 (Enter /usr/local/g16/l303.exe)
 DipDrv:  MaxL=1.
 Leave Link  303 at Wed Sep 11 12:44:08 2024, MaxMem=   104857600 cpu:               0.0 elap:               0.0
 (Enter /usr/local/g16/l401.exe)
 Initial guess from the checkpoint file:  "h2o_gaussian.chk"
 B after Tr=     0.000000    0.000000    0.000000
         Rot=    1.000000   -0.000000   -0.000000    0.000000 Ang=   0.00 deg.
 Guess basis will be translated and rotated to current coordinates.
 JPrj=2 DoOrth=T DoCkMO=T.
 Initial guess orbital symmetries:
       Occupied  (A1) (A1) (B2) (A1) (B1)
       Virtual   (A1) (B2) (B2) (A1) (A1) (B1) (B2) (A1) (A1) (A2)
                 (B1) (B2) (B2) (A1) (A1) (B2) (B1) (A2) (A1) (A1)
                 (B2) (B1) (A1) (B2) (A1)
 The electronic state of the initial guess is 1-A1.
 Generating alternative initial guess.
 ExpMin= 1.03D-01 ExpMax= 8.59D+03 ExpMxC= 1.30D+03 IAcc=2 IRadAn=         4 AccDes= 0.00D+00
 Harris functional with IExCor=  205 and IRadAn=       4 diagonalized for initial guess.
 HarFok:  IExCor=  205 AccDes= 0.00D+00 IRadAn=         4 IDoV= 1 UseB2=F ITyADJ=14
 ICtDFT=  3500011 ScaDFX=  1.000000  1.000000  1.000000  1.000000
 FoFCou: FMM=F IPFlag=           0 FMFlag=      100000 FMFlg1=           0
         NFxFlg=           0 DoJE=T BraDBF=F KetDBF=T FulRan=T
         wScrn=  0.000000 ICntrl=       500 IOpCl=  0 I1Cent=   200000004 NGrid=           0
         NMat0=    1 NMatS0=      1 NMatT0=    0 NMatD0=    1 NMtDS0=    0 NMtDT0=    0
 Petite list used in FoFCou.
 Harris En= -76.1433665922866    
 Leave Link  401 at Wed Sep 11 12:44:08 2024, MaxMem=   104857600 cpu:               0.1 elap:               0.1
 (Enter /usr/local/g16/l502.exe)
 Keep R1 ints in memory in symmetry-blocked form, NReq=940735.
 FoFCou: FMM=F IPFlag=           0 FMFlag=           0 FMFlg1=           0
         NFxFlg=           0 DoJE=F BraDBF=F KetDBF=F FulRan=T
         wScrn=  0.000000 ICntrl=       600 IOpCl=  0 I1Cent=           0 NGrid=           0
         NMat0=    1 NMatS0=    465 NMatT0=    0 NMatD0=    1 NMtDS0=    0 NMtDT0=    0
 Petite list used in FoFCou.
 Closed shell SCF:
 Using DIIS extrapolation, IDIIS=  1040.
 NGot=   104857600 LenX=   104822859 LenY=   104821457
 Requested convergence on RMS density matrix=1.00D-08 within 128 cycles.
 Requested convergence on MAX density matrix=1.00D-06.
 Requested convergence on             energy=1.00D-06.
 No special actions if energy rises.

 Cycle   1  Pass 1  IDiag  1:
 E= -76.0467426962836    
 DIIS: error= 3.22D-03 at cycle   1 NSaved=   1.
 NSaved= 1 IEnMin= 1 EnMin= -76.0467426962836     IErMin= 1 ErrMin= 3.22D-03
 ErrMax= 3.22D-03  0.00D+00 EMaxC= 1.00D-01 BMatC= 3.34D-04 BMatP= 3.34D-04
 IDIUse=3 WtCom= 9.68D-01 WtEn= 3.22D-02
 Coeff-Com:  0.100D+01
 Coeff-En:   0.100D+01
 Coeff:      0.100D+01
 Gap=     0.659 Goal=   None    Shift=    0.000
 GapD=    0.659 DampG=2.000 DampE=1.000 DampFc=2.0000 IDamp=-1.
 RMSDP=3.20D-04 MaxDP=1.98D-03              OVMax= 5.05D-03

 Cycle   2  Pass 1  IDiag  1:
 E= -76.0469754909305     Delta-E=       -0.000232794647 Rises=F Damp=F
 DIIS: error= 1.22D-03 at cycle   2 NSaved=   2.
 NSaved= 2 IEnMin= 2 EnMin= -76.0469754909305     IErMin= 2 ErrMin= 1.22D-03
 ErrMax= 1.22D-03  0.00D+00 EMaxC= 1.00D-01 BMatC= 2.76D-05 BMatP= 3.34D-04
 IDIUse=3 WtCom= 9.88D-01 WtEn= 1.22D-02
 Coeff-Com:  0.542D-01 0.946D+00
 Coeff-En:   0.000D+00 0.100D+01
 Coeff:      0.536D-01 0.946D+00
 Gap=     0.653 Goal=   None    Shift=    0.000
 RMSDP=1.22D-04 MaxDP=1.79D-03 DE=-2.33D-04 OVMax= 1.48D-03

 Cycle   3  Pass 1  IDiag  1:
 E= -76.0469942323706     Delta-E=       -0.000018741440 Rises=F Damp=F
 DIIS: error= 4.74D-04 at cycle   3 NSaved=   3.
 NSaved= 3 IEnMin= 3 EnMin= -76.0469942323706     IErMin= 3 ErrMin= 4.74D-04
 ErrMax= 4.74D-04  0.00D+00 EMaxC= 1.00D-01 BMatC= 4.76D-06 BMatP= 2.76D-05
 IDIUse=3 WtCom= 9.95D-01 WtEn= 4.74D-03
 Coeff-Com: -0.537D-01 0.238D+00 0.815D+00
 Coeff-En:   0.000D+00 0.000D+00 0.100D+01
 Coeff:     -0.534D-01 0.237D+00 0.816D+00
 Gap=     0.654 Goal=   None    Shift=    0.000
 RMSDP=4.32D-05 MaxDP=4.43D-04 DE=-1.87D-05 OVMax= 9.13D-04

 Cycle   4  Pass 1  IDiag  1:
 E= -76.0469984576316     Delta-E=       -0.000004225261 Rises=F Damp=F
 DIIS: error= 9.36D-05 at cycle   4 NSaved=   4.
 NSaved= 4 IEnMin= 4 EnMin= -76.0469984576316     IErMin= 4 ErrMin= 9.36D-05
 ErrMax= 9.36D-05  0.00D+00 EMaxC= 1.00D-01 BMatC= 1.90D-07 BMatP= 4.76D-06
 IDIUse=1 WtCom= 1.00D+00 WtEn= 0.00D+00
 Coeff-Com:  0.280D-02-0.830D-01-0.588D-01 0.114D+01
 Coeff:      0.280D-02-0.830D-01-0.588D-01 0.114D+01
 Gap=     0.654 Goal=   None    Shift=    0.000
 RMSDP=1.88D-05 MaxDP=1.95D-04 DE=-4.23D-06 OVMax= 3.91D-04

 Cycle   5  Pass 1  IDiag  1:
 E= -76.0469988544548     Delta-E=       -0.000000396823 Rises=F Damp=F
 DIIS: error= 2.08D-05 at cycle   5 NSaved=   5.
 NSaved= 5 IEnMin= 5 EnMin= -76.0469988544548     IErMin= 5 ErrMin= 2.08D-05
 ErrMax= 2.08D-05  0.00D+00 EMaxC= 1.00D-01 BMatC= 1.07D-08 BMatP= 1.90D-07
 IDIUse=1 WtCom= 1.00D+00 WtEn= 0.00D+00
 Coeff-Com:  0.271D-02-0.372D-02-0.391D-01-0.216D+00 0.126D+01
 Coeff:      0.271D-02-0.372D-02-0.391D-01-0.216D+00 0.126D+01
 Gap=     0.653 Goal=   None    Shift=    0.000
 RMSDP=6.54D-06 MaxDP=4.68D-05 DE=-3.97D-07 OVMax= 1.48D-04

 Cycle   6  Pass 1  IDiag  1:
 E= -76.0469988864082     Delta-E=       -0.000000031953 Rises=F Damp=F
 DIIS: error= 3.68D-06 at cycle   6 NSaved=   6.
 NSaved= 6 IEnMin= 6 EnMin= -76.0469988864082     IErMin= 6 ErrMin= 3.68D-06
 ErrMax= 3.68D-06  0.00D+00 EMaxC= 1.00D-01 BMatC= 3.65D-10 BMatP= 1.07D-08
 IDIUse=1 WtCom= 1.00D+00 WtEn= 0.00D+00
 Coeff-Com: -0.829D-03 0.388D-02 0.143D-01 0.212D-01-0.359D+00 0.132D+01
 Coeff:     -0.829D-03 0.388D-02 0.143D-01 0.212D-01-0.359D+00 0.132D+01
 Gap=     0.653 Goal=   None    Shift=    0.000
 RMSDP=1.18D-06 MaxDP=1.14D-05 DE=-3.20D-08 OVMax= 2.15D-05

 Cycle   7  Pass 1  IDiag  1:
 E= -76.0469988873148     Delta-E=       -0.000000000907 Rises=F Damp=F
 DIIS: error= 9.16D-07 at cycle   7 NSaved=   7.
 NSaved= 7 IEnMin= 7 EnMin= -76.0469988873148     IErMin= 7 ErrMin= 9.16D-07
 ErrMax= 9.16D-07  0.00D+00 EMaxC= 1.00D-01 BMatC= 9.91D-12 BMatP= 3.65D-10
 IDIUse=1 WtCom= 1.00D+00 WtEn= 0.00D+00
 Coeff-Com:  0.116D-03-0.747D-03-0.238D-02 0.698D-04 0.559D-01-0.345D+00
 Coeff-Com:  0.129D+01
 Coeff:      0.116D-03-0.747D-03-0.238D-02 0.698D-04 0.559D-01-0.345D+00
 Coeff:      0.129D+01
 Gap=     0.653 Goal=   None    Shift=    0.000
 RMSDP=1.75D-07 MaxDP=1.95D-06 DE=-9.07D-10 OVMax= 2.57D-06

 Cycle   8  Pass 1  IDiag  1:
 E= -76.0469988873369     Delta-E=       -0.000000000022 Rises=F Damp=F
 DIIS: error= 1.48D-07 at cycle   8 NSaved=   8.
 NSaved= 8 IEnMin= 8 EnMin= -76.0469988873369     IErMin= 8 ErrMin= 1.48D-07
 ErrMax= 1.48D-07  0.00D+00 EMaxC= 1.00D-01 BMatC= 2.40D-13 BMatP= 9.91D-12
 IDIUse=1 WtCom= 1.00D+00 WtEn= 0.00D+00
 Coeff-Com: -0.212D-04 0.178D-03 0.486D-03-0.424D-03-0.115D-01 0.922D-01
 Coeff-Com: -0.449D+00 0.137D+01
 Coeff:     -0.212D-04 0.178D-03 0.486D-03-0.424D-03-0.115D-01 0.922D-01
 Coeff:     -0.449D+00 0.137D+01
 Gap=     0.653 Goal=   None    Shift=    0.000
 RMSDP=2.22D-08 MaxDP=1.44D-07 DE=-2.21D-11 OVMax= 3.95D-07

 Cycle   9  Pass 1  IDiag  1:
 E= -76.0469988873374     Delta-E=       -0.000000000000 Rises=F Damp=F
 DIIS: error= 1.48D-08 at cycle   9 NSaved=   9.
 NSaved= 9 IEnMin= 9 EnMin= -76.0469988873374     IErMin= 9 ErrMin= 1.48D-08
 ErrMax= 1.48D-08  0.00D+00 EMaxC= 1.00D-01 BMatC= 3.56D-15 BMatP= 2.40D-13
 IDIUse=1 WtCom= 1.00D+00 WtEn= 0.00D+00
 Coeff-Com:  0.401D-05-0.399D-04-0.905D-04 0.206D-03 0.185D-02-0.186D-01
 Coeff-Com:  0.101D+00-0.391D+00 0.131D+01
 Coeff:      0.401D-05-0.399D-04-0.905D-04 0.206D-03 0.185D-02-0.186D-01
 Coeff:      0.101D+00-0.391D+00 0.131D+01
 Gap=     0.653 Goal=   None    Shift=    0.000
 RMSDP=3.09D-09 MaxDP=2.62D-08 DE=-4.69D-13 OVMax= 4.18D-08

 SCF Done:  E(RHF) =  -76.0469988873     A.U. after    9 cycles
            NFock=  9  Conv=0.31D-08     -V/T= 1.9990
 KE= 7.612653422060D+01 PE=-1.995725795178D+02 EE= 3.803981772692D+01
 Leave Link  502 at Wed Sep 11 12:44:08 2024, MaxMem=   104857600 cpu:               0.1 elap:               0.1
 (Enter /usr/local/g16/l701.exe)
 ... and contract with generalized density number  0.
 Compute integral first derivatives.
 Leave Link  701 at Wed Sep 11 12:44:08 2024, MaxMem=   104857600 cpu:               0.1 elap:               0.1
 (Enter /usr/local/g16/l702.exe)
 L702 exits ... SP integral derivatives will be done elsewhere.
 Leave Link  702 at Wed Sep 11 12:44:08 2024, MaxMem=   104857600 cpu:               0.0 elap:               0.0
 (Enter /usr/local/g16/l703.exe)
 Integral derivatives from FoFJK, PRISM(SPDF).
 Compute integral first derivatives, UseDBF=F ICtDFT=           0.
 Calling FoFJK, ICntrl=      2127 FMM=F ISym2X=1 I1Cent= 0 IOpClX= 0 NMat=1 NMatS=1 NMatT=0.
 FoFJK:  IHMeth= 1 ICntrl=    2127 DoSepK=F KAlg= 0 I1Cent=           0 FoldK=F
 IRaf=         0 NMat=       1 IRICut=       1 DoRegI=T DoRafI=F ISym2E= 1 IDoP0=0 IntGTp=1.
 FoFCou: FMM=F IPFlag=           0 FMFlag=      100000 FMFlg1=         800
         NFxFlg=           0 DoJE=F BraDBF=F KetDBF=F FulRan=T
         wScrn=  0.000000 ICntrl=      2127 IOpCl=  0 I1Cent=           0 NGrid=           0
         NMat0=    1 NMatS0=      1 NMatT0=    0 NMatD0=    1 NMtDS0=    0 NMtDT0=    0
 Petite list used in FoFCou.
 Leave Link  703 at Wed Sep 11 12:44:08 2024, MaxMem=   104857600 cpu:               0.1 elap:               0.1
 (Enter /usr/local/g16/l716.exe)
 Dipole        =-4.11299819D-17-2.22044605D-16-8.44632073D-01
 ***** Axes restored to original set *****
 -------------------------------------------------------------------
 Center     Atomic                   Forces (Hartrees/Bohr)
 Number     Number              X              Y              Z
 -------------------------------------------------------------------
      1        8           0.000399072    0.000000000    0.000308995
      2        1          -0.001168135   -0.000000000    0.001096465
      3        1           0.000769062   -0.000000000   -0.001405460
 -------------------------------------------------------------------
 Cartesian Forces:  Max     0.001405460 RMS     0.000773756
 Leave Link  716 at Wed Sep 11 12:44:08 2024, MaxMem=   104857600 cpu:               0.0 elap:               0.0
 (Enter /usr/local/g16/l103.exe)

 GradGradGradGradGradGradGradGradGradGradGradGradGradGradGradGradGradGrad
 Berny optimization.
 Using GEDIIS/GDIIS optimizer.
 FormGI is forming the generalized inverse of G from B-inverse, IUseBI=4.
 Internal  Forces:  Max     0.002070517 RMS     0.001495017
 Search for a local minimum.
 Step number   2 out of a maximum of   20
 All quantities printed in internal units (Hartrees-Bohrs-Radians)
 RMS Force = .14950D-02 SwitMx=.10000D-02 MixMth= 1
 Mixed Optimization -- RFO/linear search
 Update second derivatives using D2CorX and points    1    2
 DE= -7.54D-04 DEPred=-7.73D-04 R= 9.75D-01
 TightC=F SS=  1.41D+00  RLast= 5.28D-02 DXNew= 5.0454D-01 1.5851D-01
 Trust test= 9.75D-01 RLast= 5.28D-02 DXMaxT set to 3.00D-01
 The second derivative matrix:
                          R1        R2        A1
           R1           0.57230
           R2           0.01756   0.57230
           A1           0.02777   0.02777   0.16042
 ITU=  1  0
 Use linear search instead of GDIIS.
     Eigenvalues ---    0.15686   0.55473   0.59342
 RFO step:  Lambda=-2.58155181D-05 EMin= 1.56862109D-01
 Quartic linear search produced a step of -0.04111.
 Iteration  1 RMS(Cart)=  0.00738358 RMS(Int)=  0.00002896
 Iteration  2 RMS(Cart)=  0.00002292 RMS(Int)=  0.00000000
 Iteration  3 RMS(Cart)=  0.00000000 RMS(Int)=  0.00000000
 ITry= 1 IFail=0 DXMaxC= 7.76D-03 DCOld= 1.00D+10 DXMaxT= 3.00D-01 DXLimC= 3.00D+00 Rises=F
 ClnCor:  largest displacement from symmetrization is 6.68D-16 for atom     3.
 Variable       Old X    -DE/DX   Delta X   Delta X   Delta X     New X
                                 (Linear)    (Quad)   (Total)
    R1        1.77697   0.00110   0.00153  -0.00035   0.00117   1.77814
    R2        1.77697   0.00110   0.00153  -0.00035   0.00117   1.77814
    A1        1.82922   0.00207  -0.00022   0.01277   0.01255   1.84177
         Item               Value     Threshold  Converged?
 Maximum Force            0.002071     0.000450     NO 
 RMS     Force            0.001495     0.000300     NO 
 Maximum Displacement     0.007759     0.001800     NO 
 RMS     Displacement     0.007374     0.001200     NO 
 Predicted change in Energy=-1.430185D-05
 Lowest energy point so far.  Saving SCF results.
 GradGradGradGradGradGradGradGradGradGradGradGradGradGradGradGradGradGrad

 Leave Link  103 at Wed Sep 11 12:44:08 2024, MaxMem=   104857600 cpu:               0.0 elap:               0.0
 (Enter /usr/local/g16/l202.exe)
                          Input orientation:                          
 ---------------------------------------------------------------------
 Center     Atomic      Atomic             Coordinates (Angstroms)
 Number     Number       Type             X           Y           Z
 ---------------------------------------------------------------------
      1          8           0        0.009670    0.000000    0.007487
      2          1           0        0.001247   -0.000000    0.948402
      3          1           0        0.918505    0.000000   -0.236254
 ---------------------------------------------------------------------
                    Distance matrix (angstroms):
                    1          2          3
     1  O    0.000000
     2  H    0.940953   0.000000
     3  H    0.940953   1.498256   0.000000
 Stoichiometry    H2O
 Framework group  C2V[C2(O),SGV(H2)]
 Deg. of freedom     2
 Full point group                 C2V     NOp   4
 RotChk:  IX=0 Diff= 5.44D-16
 Largest Abelian subgroup         C2V     NOp   4
 Largest concise Abelian subgroup C2      NOp   2
                         Standard orientation:                         
 ---------------------------------------------------------------------
 Center     Atomic      Atomic             Coordinates (Angstroms)
 Number     Number       Type             X           Y           Z
 ---------------------------------------------------------------------
      1          8           0       -0.000000    0.000000    0.113877
      2          1           0        0.000000    0.749128   -0.455508
      3          1           0       -0.000000   -0.749128   -0.455508
 ---------------------------------------------------------------------
 Rotational constants (GHZ):         870.8347477         446.7759411         295.2829825
 Leave Link  202 at Wed Sep 11 12:44:08 2024, MaxMem=   104857600 cpu:               0.0 elap:               0.0
 (Enter /usr/local/g16/l301.exe)
 Standard basis: 6-311G(d,p) (5D, 7F)
 Ernie: Thresh=  0.10000D-02 Tol=  0.10000D-05 Strict=F.
 There are    15 symmetry adapted cartesian basis functions of A1  symmetry.
 There are     2 symmetry adapted cartesian basis functions of A2  symmetry.
 There are     5 symmetry adapted cartesian basis functions of B1  symmetry.
 There are     9 symmetry adapted cartesian basis functions of B2  symmetry.
 There are    14 symmetry adapted basis functions of A1  symmetry.
 There are     2 symmetry adapted basis functions of A2  symmetry.
 There are     5 symmetry adapted basis functions of B1  symmetry.
 There are     9 symmetry adapted basis functions of B2  symmetry.
    30 basis functions,    48 primitive gaussians,    31 cartesian basis functions
     5 alpha electrons        5 beta electrons
       nuclear repulsion energy         9.3513468248 Hartrees.
 IExCor=    0 DFT=F Ex=HF Corr=None ExCW=0 ScaHFX=  1.000000
 ScaDFX=  1.000000  1.000000  1.000000  1.000000 ScalE2=  1.000000  1.000000
 IRadAn=      5 IRanWt=     -1 IRanGd=            0 ICorTp=0 IEmpDi=  4
 NAtoms=    3 NActive=    3 NUniq=    2 SFac= 2.25D+00 NAtFMM=   60 NAOKFM=F Big=F
 Integral buffers will be    131072 words long.
 Raffenetti 1 integral format.
 Two-electron integral symmetry is turned on.
 Leave Link  301 at Wed Sep 11 12:44:08 2024, MaxMem=   104857600 cpu:               0.0 elap:               0.0
 (Enter /usr/local/g16/l302.exe)
 NPDir=0 NMtPBC=     1 NCelOv=     1 NCel=       1 NClECP=     1 NCelD=      1
         NCelK=      1 NCelE2=     1 NClLst=     1 CellRange=     0.0.
 One-electron integrals computed using PRISM.
 One-electron integral symmetry used in STVInt
 NBasis=    30 RedAO= T EigKep=  1.70D-02  NBF=    14     2     5     9
 NBsUse=    30 1.00D-06 EigRej= -1.00D+00 NBFU=    14     2     5     9
 Leave Link  302 at Wed Sep 11 12:44:08 2024, MaxMem=   104857600 cpu:               0.1 elap:               0.1
 (Enter /usr/local/g16/l303.exe)
 DipDrv:  MaxL=1.
 Leave Link  303 at Wed Sep 11 12:44:08 2024, MaxMem=   104857600 cpu:               0.0 elap:               0.0
 (Enter /usr/local/g16/l401.exe)
 Initial guess from the checkpoint file:  "h2o_gaussian.chk"
 B after Tr=    -0.000000    0.000000   -0.000000
         Rot=    1.000000   -0.000000   -0.000000    0.000000 Ang=   0.00 deg.
 Guess basis will be translated and rotated to current coordinates.
 JPrj=2 DoOrth=T DoCkMO=T.
 Initial guess orbital symmetries:
       Occupied  (A1) (A1) (B2) (A1) (B1)
       Virtual   (A1) (B2) (B2) (A1) (A1) (B1) (B2) (A1) (A1) (A2)
                 (B1) (B2) (B2) (A1) (A1) (B2) (B1) (A2) (A1) (A1)
                 (B2) (B1) (A1) (B2) (A1)
 The electronic state of the initial guess is 1-A1.
 Leave Link  401 at Wed Sep 11 12:44:08 2024, MaxMem=   104857600 cpu:               0.1 elap:               0.1
 (Enter /usr/local/g16/l502.exe)
 Keep R1 ints in memory in symmetry-blocked form, NReq=940707.
 FoFCou: FMM=F IPFlag=           0 FMFlag=           0 FMFlg1=           0
         NFxFlg=           0 DoJE=F BraDBF=F KetDBF=F FulRan=T
         wScrn=  0.000000 ICntrl=       600 IOpCl=  0 I1Cent=           0 NGrid=           0
         NMat0=    1 NMatS0=    465 NMatT0=    0 NMatD0=    1 NMtDS0=    0 NMtDT0=    0
 Petite list used in FoFCou.
 Closed shell SCF:
 Using DIIS extrapolation, IDIIS=  1040.
 NGot=   104857600 LenX=   104822859 LenY=   104821457
 Requested convergence on RMS density matrix=1.00D-08 within 128 cycles.
 Requested convergence on MAX density matrix=1.00D-06.
 Requested convergence on             energy=1.00D-06.
 No special actions if energy rises.

 Cycle   1  Pass 1  IDiag  1:
 E= -76.0470041557573    
 DIIS: error= 4.75D-04 at cycle   1 NSaved=   1.
 NSaved= 1 IEnMin= 1 EnMin= -76.0470041557573     IErMin= 1 ErrMin= 4.75D-04
 ErrMax= 4.75D-04  0.00D+00 EMaxC= 1.00D-01 BMatC= 7.77D-06 BMatP= 7.77D-06
 IDIUse=3 WtCom= 9.95D-01 WtEn= 4.75D-03
 Coeff-Com:  0.100D+01
 Coeff-En:   0.100D+01
 Coeff:      0.100D+01
 Gap=     0.653 Goal=   None    Shift=    0.000
 RMSDP=1.14D-04 MaxDP=1.18D-03              OVMax= 1.01D-03

 Cycle   2  Pass 1  IDiag  1:
 E= -76.0470115008851     Delta-E=       -0.000007345128 Rises=F Damp=F
 DIIS: error= 9.15D-05 at cycle   2 NSaved=   2.
 NSaved= 2 IEnMin= 2 EnMin= -76.0470115008851     IErMin= 2 ErrMin= 9.15D-05
 ErrMax= 9.15D-05  0.00D+00 EMaxC= 1.00D-01 BMatC= 2.68D-07 BMatP= 7.77D-06
 IDIUse=1 WtCom= 1.00D+00 WtEn= 0.00D+00
 Coeff-Com: -0.177D+00 0.118D+01
 Coeff:     -0.177D+00 0.118D+01
 Gap=     0.653 Goal=   None    Shift=    0.000
 RMSDP=3.90D-05 MaxDP=3.78D-04 DE=-7.35D-06 OVMax= 3.27D-04

 Cycle   3  Pass 1  IDiag  1:
 E= -76.0470119038423     Delta-E=       -0.000000402957 Rises=F Damp=F
 DIIS: error= 2.10D-05 at cycle   3 NSaved=   3.
 NSaved= 3 IEnMin= 3 EnMin= -76.0470119038423     IErMin= 3 ErrMin= 2.10D-05
 ErrMax= 2.10D-05  0.00D+00 EMaxC= 1.00D-01 BMatC= 1.30D-08 BMatP= 2.68D-07
 IDIUse=1 WtCom= 1.00D+00 WtEn= 0.00D+00
 Coeff-Com: -0.229D-01 0.679D-01 0.955D+00
 Coeff:     -0.229D-01 0.679D-01 0.955D+00
 Gap=     0.653 Goal=   None    Shift=    0.000
 RMSDP=6.29D-06 MaxDP=5.92D-05 DE=-4.03D-07 OVMax= 5.47D-05

 Cycle   4  Pass 1  IDiag  1:
 E= -76.0470119177763     Delta-E=       -0.000000013934 Rises=F Damp=F
 DIIS: error= 1.05D-05 at cycle   4 NSaved=   4.
 NSaved= 4 IEnMin= 4 EnMin= -76.0470119177763     IErMin= 4 ErrMin= 1.05D-05
 ErrMax= 1.05D-05  0.00D+00 EMaxC= 1.00D-01 BMatC= 1.86D-09 BMatP= 1.30D-08
 IDIUse=1 WtCom= 1.00D+00 WtEn= 0.00D+00
 Coeff-Com:  0.147D-01-0.117D+00 0.198D+00 0.905D+00
 Coeff:      0.147D-01-0.117D+00 0.198D+00 0.905D+00
 Gap=     0.653 Goal=   None    Shift=    0.000
 RMSDP=2.47D-06 MaxDP=2.58D-05 DE=-1.39D-08 OVMax= 2.46D-05

 Cycle   5  Pass 1  IDiag  1:
 E= -76.0470119199098     Delta-E=       -0.000000002134 Rises=F Damp=F
 DIIS: error= 2.04D-06 at cycle   5 NSaved=   5.
 NSaved= 5 IEnMin= 5 EnMin= -76.0470119199098     IErMin= 5 ErrMin= 2.04D-06
 ErrMax= 2.04D-06  0.00D+00 EMaxC= 1.00D-01 BMatC= 5.84D-11 BMatP= 1.86D-09
 IDIUse=1 WtCom= 1.00D+00 WtEn= 0.00D+00
 Coeff-Com: -0.509D-04 0.531D-02-0.597D-01-0.176D-01 0.107D+01
 Coeff:     -0.509D-04 0.531D-02-0.597D-01-0.176D-01 0.107D+01
 Gap=     0.653 Goal=   None    Shift=    0.000
 RMSDP=3.36D-07 MaxDP=3.04D-06 DE=-2.13D-09 OVMax= 5.43D-06

 Cycle   6  Pass 1  IDiag  1:
 E= -76.0470119200080     Delta-E=       -0.000000000098 Rises=F Damp=F
 DIIS: error= 3.84D-07 at cycle   6 NSaved=   6.
 NSaved= 6 IEnMin= 6 EnMin= -76.0470119200080     IErMin= 6 ErrMin= 3.84D-07
 ErrMax= 3.84D-07  0.00D+00 EMaxC= 1.00D-01 BMatC= 3.49D-12 BMatP= 5.84D-11
 IDIUse=1 WtCom= 1.00D+00 WtEn= 0.00D+00
 Coeff-Com: -0.910D-03 0.599D-02 0.218D-03-0.450D-01-0.287D+00 0.133D+01
 Coeff:     -0.910D-03 0.599D-02 0.218D-03-0.450D-01-0.287D+00 0.133D+01
 Gap=     0.653 Goal=   None    Shift=    0.000
 RMSDP=1.07D-07 MaxDP=8.73D-07 DE=-9.81D-11 OVMax= 2.39D-06

 Cycle   7  Pass 1  IDiag  1:
 E= -76.0470119200175     Delta-E=       -0.000000000010 Rises=F Damp=F
 DIIS: error= 5.22D-08 at cycle   7 NSaved=   7.
 NSaved= 7 IEnMin= 7 EnMin= -76.0470119200175     IErMin= 7 ErrMin= 5.22D-08
 ErrMax= 5.22D-08  0.00D+00 EMaxC= 1.00D-01 BMatC= 8.84D-14 BMatP= 3.49D-12
 IDIUse=1 WtCom= 1.00D+00 WtEn= 0.00D+00
 Coeff-Com:  0.315D-03-0.219D-02 0.168D-02 0.156D-01 0.673D-01-0.446D+00
 Coeff-Com:  0.136D+01
 Coeff:      0.315D-03-0.219D-02 0.168D-02 0.156D-01 0.673D-01-0.446D+00
 Coeff:      0.136D+01
 Gap=     0.653 Goal=   None    Shift=    0.000
 RMSDP=1.64D-08 MaxDP=1.25D-07 DE=-9.52D-12 OVMax= 3.68D-07

 Cycle   8  Pass 1  IDiag  1:
 E= -76.0470119200178     Delta-E=       -0.000000000000 Rises=F Damp=F
 DIIS: error= 1.45D-08 at cycle   8 NSaved=   8.
 NSaved= 8 IEnMin= 8 EnMin= -76.0470119200178     IErMin= 8 ErrMin= 1.45D-08
 ErrMax= 1.45D-08  0.00D+00 EMaxC= 1.00D-01 BMatC= 2.22D-15 BMatP= 8.84D-14
 IDIUse=1 WtCom= 1.00D+00 WtEn= 0.00D+00
 Coeff-Com: -0.977D-04 0.686D-03-0.670D-03-0.492D-02-0.177D-01 0.135D+00
 Coeff-Com: -0.515D+00 0.140D+01
 Coeff:     -0.977D-04 0.686D-03-0.670D-03-0.492D-02-0.177D-01 0.135D+00
 Coeff:     -0.515D+00 0.140D+01
 Gap=     0.653 Goal=   None    Shift=    0.000
 RMSDP=2.81D-09 MaxDP=2.53D-08 DE=-2.84D-13 OVMax= 4.45D-08

 SCF Done:  E(RHF) =  -76.0470119200     A.U. after    8 cycles
            NFock=  8  Conv=0.28D-08     -V/T= 1.9990
 KE= 7.612287068302D+01 PE=-1.995573260397D+02 EE= 3.803609661181D+01
 Leave Link  502 at Wed Sep 11 12:44:08 2024, MaxMem=   104857600 cpu:               0.1 elap:               0.1
 (Enter /usr/local/g16/l701.exe)
 ... and contract with generalized density number  0.
 Compute integral first derivatives.
 Leave Link  701 at Wed Sep 11 12:44:08 2024, MaxMem=   104857600 cpu:               0.1 elap:               0.1
 (Enter /usr/local/g16/l702.exe)
 L702 exits ... SP integral derivatives will be done elsewhere.
 Leave Link  702 at Wed Sep 11 12:44:08 2024, MaxMem=   104857600 cpu:               0.0 elap:               0.0
 (Enter /usr/local/g16/l703.exe)
 Integral derivatives from FoFJK, PRISM(SPDF).
 Compute integral first derivatives, UseDBF=F ICtDFT=           0.
 Calling FoFJK, ICntrl=      2127 FMM=F ISym2X=1 I1Cent= 0 IOpClX= 0 NMat=1 NMatS=1 NMatT=0.
 FoFJK:  IHMeth= 1 ICntrl=    2127 DoSepK=F KAlg= 0 I1Cent=           0 FoldK=F
 IRaf=         0 NMat=       1 IRICut=       1 DoRegI=T DoRafI=F ISym2E= 1 IDoP0=0 IntGTp=1.
 FoFCou: FMM=F IPFlag=           0 FMFlag=      100000 FMFlg1=         800
         NFxFlg=           0 DoJE=F BraDBF=F KetDBF=F FulRan=T
         wScrn=  0.000000 ICntrl=      2127 IOpCl=  0 I1Cent=           0 NGrid=           0
         NMat0=    1 NMatS0=      1 NMatT0=    0 NMatD0=    1 NMtDS0=    0 NMtDT0=    0
 Petite list used in FoFCou.
 Leave Link  703 at Wed Sep 11 12:44:09 2024, MaxMem=   104857600 cpu:               0.1 elap:               0.1
 (Enter /usr/local/g16/l716.exe)
 Dipole        =-4.15281571D-17 4.44089210D-16-8.40642317D-01
 ***** Axes restored to original set *****
 -------------------------------------------------------------------
 Center     Atomic                   Forces (Hartrees/Bohr)
 Number     Number              X              Y              Z
 -------------------------------------------------------------------
      1        8          -0.000130180    0.000000000   -0.000100796
      2        1           0.000108447   -0.000000000   -0.000005598
      3        1           0.000021733   -0.000000000    0.000106394
 -------------------------------------------------------------------
 Cartesian Forces:  Max     0.000130180 RMS     0.000075049
 Leave Link  716 at Wed Sep 11 12:44:09 2024, MaxMem=   104857600 cpu:               0.0 elap:               0.0
 (Enter /usr/local/g16/l103.exe)

 GradGradGradGradGradGradGradGradGradGradGradGradGradGradGradGradGradGrad
 Berny optimization.
 Using GEDIIS/GDIIS optimizer.
 FormGI is forming the generalized inverse of G from B-inverse, IUseBI=4.
 Internal  Forces:  Max     0.000192737 RMS     0.000111406
 Search for a local minimum.
 Step number   3 out of a maximum of   20
 All quantities printed in internal units (Hartrees-Bohrs-Radians)
 RMS Force = .11141D-03 SwitMx=.10000D-02 MixMth= 2
 Mixed Optimization -- En-DIIS/RFO-DIIS
 Update second derivatives using D2CorX and points    1    2    3
 DE= -1.30D-05 DEPred=-1.43D-05 R= 9.11D-01
 TightC=F SS=  1.41D+00  RLast= 1.27D-02 DXNew= 5.0454D-01 3.7978D-02
 Trust test= 9.11D-01 RLast= 1.27D-02 DXMaxT set to 3.00D-01
 The second derivative matrix:
                          R1        R2        A1
           R1           0.57460
           R2           0.01986   0.57460
           A1           0.03250   0.03250   0.17425
 ITU=  1  1  0
 Use linear search instead of GDIIS.
     Eigenvalues ---    0.16929   0.55473   0.59943
 RFO step:  Lambda=-2.52707447D-08 EMin= 1.69285045D-01
 Quartic linear search produced a step of -0.07900.
 Iteration  1 RMS(Cart)=  0.00060759 RMS(Int)=  0.00000023
 Iteration  2 RMS(Cart)=  0.00000021 RMS(Int)=  0.00000000
 ITry= 1 IFail=0 DXMaxC= 6.19D-04 DCOld= 1.00D+10 DXMaxT= 3.00D-01 DXLimC= 3.00D+00 Rises=F
 ClnCor:  largest displacement from symmetrization is 1.35D-15 for atom     2.
 Variable       Old X    -DE/DX   Delta X   Delta X   Delta X     New X
                                 (Linear)    (Quad)   (Total)
    R1        1.77814  -0.00001  -0.00009   0.00014   0.00005   1.77819
    R2        1.77814  -0.00001  -0.00009   0.00014   0.00005   1.77819
    A1        1.84177  -0.00019  -0.00099  -0.00014  -0.00113   1.84064
         Item               Value     Threshold  Converged?
 Maximum Force            0.000193     0.000450     YES
 RMS     Force            0.000111     0.000300     YES
 Maximum Displacement     0.000619     0.001800     YES
 RMS     Displacement     0.000608     0.001200     YES
 Predicted change in Energy=-1.080684D-07
 Optimization completed.
    -- Stationary point found.
                           ----------------------------
                           !   Optimized Parameters   !
                           ! (Angstroms and Degrees)  !
 --------------------------                            --------------------------
 ! Name  Definition              Value          Derivative Info.                !
 --------------------------------------------------------------------------------
 ! R1    R(1,2)                  0.941          -DE/DX =    0.0                 !
 ! R2    R(1,3)                  0.941          -DE/DX =    0.0                 !
 ! A1    A(2,1,3)              105.5257         -DE/DX =   -0.0002              !
 --------------------------------------------------------------------------------
 Lowest energy point so far.  Saving SCF results.
 Largest change from initial coordinates is atom    3       0.018 Angstoms.
 GradGradGradGradGradGradGradGradGradGradGradGradGradGradGradGradGradGrad

 Leave Link  103 at Wed Sep 11 12:44:09 2024, MaxMem=   104857600 cpu:               0.0 elap:               0.0
 (Enter /usr/local/g16/l202.exe)
                          Input orientation:                          
 ---------------------------------------------------------------------
 Center     Atomic      Atomic             Coordinates (Angstroms)
 Number     Number       Type             X           Y           Z
 ---------------------------------------------------------------------
      1          8           0        0.009670    0.000000    0.007487
      2          1           0        0.001247   -0.000000    0.948402
      3          1           0        0.918505    0.000000   -0.236254
 ---------------------------------------------------------------------
                    Distance matrix (angstroms):
                    1          2          3
     1  O    0.000000
     2  H    0.940953   0.000000
     3  H    0.940953   1.498256   0.000000
 Stoichiometry    H2O
 Framework group  C2V[C2(O),SGV(H2)]
 Deg. of freedom     2
 Full point group                 C2V     NOp   4
 RotChk:  IX=0 Diff= 1.11D-15
 Largest Abelian subgroup         C2V     NOp   4
 Largest concise Abelian subgroup C2      NOp   2
                         Standard orientation:                         
 ---------------------------------------------------------------------
 Center     Atomic      Atomic             Coordinates (Angstroms)
 Number     Number       Type             X           Y           Z
 ---------------------------------------------------------------------
      1          8           0       -0.000000   -0.000000    0.113877
      2          1           0       -0.000000    0.749128   -0.455508
      3          1           0       -0.000000   -0.749128   -0.455508
 ---------------------------------------------------------------------
 Rotational constants (GHZ):         870.8347477         446.7759411         295.2829825
 Leave Link  202 at Wed Sep 11 12:44:09 2024, MaxMem=   104857600 cpu:               0.0 elap:               0.0
 (Enter /usr/local/g16/l601.exe)
 Copying SCF densities to generalized density rwf, IOpCl= 0 IROHF=0.

 **********************************************************************

            Population analysis using the SCF density.

 **********************************************************************

 Orbital symmetries:
       Occupied  (A1) (A1) (B2) (A1) (B1)
       Virtual   (A1) (B2) (B2) (A1) (A1) (B1) (B2) (A1) (A1) (A2)
                 (B1) (B2) (B2) (A1) (A1) (B2) (B1) (A2) (A1) (A1)
                 (B2) (B1) (A1) (B2) (A1)
 The electronic state is 1-A1.
 Alpha  occ. eigenvalues --  -20.54130  -1.34910  -0.71736  -0.57273  -0.50064
 Alpha virt. eigenvalues --    0.15262   0.21857   0.57737   0.62052   0.99746
 Alpha virt. eigenvalues --    1.00312   1.11137   1.31043   1.49915   1.51568
 Alpha virt. eigenvalues --    1.72725   1.92997   2.27783   2.39766   2.61039
 Alpha virt. eigenvalues --    2.76821   3.50499   3.57237   3.73787   4.03581
 Alpha virt. eigenvalues --    4.28196   5.33051   5.76154   6.25861  51.57513
          Condensed to atoms (all electrons):
               1          2          3
     1  O    7.841766   0.328371   0.328371
     2  H    0.328371   0.453274  -0.030898
     3  H    0.328371  -0.030898   0.453274
 Mulliken charges:
               1
     1  O   -0.498507
     2  H    0.249254
     3  H    0.249254
 Sum of Mulliken charges =  -0.00000
 Mulliken charges with hydrogens summed into heavy atoms:
               1
     1  O   -0.000000
 Electronic spatial extent (au):  <R**2>=             18.7101
 Charge=             -0.0000 electrons
 Dipole moment (field-independent basis, Debye):
    X=             -0.0000    Y=              0.0000    Z=             -2.1367  Tot=              2.1367
 Quadrupole moment (field-independent basis, Debye-Ang):
   XX=             -7.1363   YY=             -4.1275   ZZ=             -6.0194
   XY=              0.0000   XZ=              0.0000   YZ=             -0.0000
 Traceless Quadrupole moment (field-independent basis, Debye-Ang):
   XX=             -1.3752   YY=              1.6336   ZZ=             -0.2584
   XY=              0.0000   XZ=              0.0000   YZ=             -0.0000
 Octapole moment (field-independent basis, Debye-Ang**2):
  XXX=              0.0000  YYY=              0.0000  ZZZ=             -1.3268  XYY=             -0.0000
  XXY=             -0.0000  XXZ=             -0.3569  XZZ=              0.0000  YZZ=             -0.0000
  YYZ=             -1.3041  XYZ=             -0.0000
 Hexadecapole moment (field-independent basis, Debye-Ang**3):
 XXXX=             -5.1453 YYYY=             -5.4439 ZZZZ=             -6.0314 XXXY=             -0.0000
 XXXZ=             -0.0000 YYYX=             -0.0000 YYYZ=             -0.0000 ZZZX=             -0.0000
 ZZZY=              0.0000 XXYY=             -2.0508 XXZZ=             -1.9141 YYZZ=             -1.5925
 XXYZ=              0.0000 YYXZ=              0.0000 ZZXY=             -0.0000
 N-N= 9.351346824839D+00 E-N=-1.995573260479D+02  KE= 7.612287068302D+01
 Symmetry A1   KE= 6.798210268733D+01
 Symmetry A2   KE= 1.559203897347D-34
 Symmetry B1   KE= 4.569597748758D+00
 Symmetry B2   KE= 3.571170246928D+00
 No NMR shielding tensors so no spin-rotation constants.
 Leave Link  601 at Wed Sep 11 12:44:09 2024, MaxMem=   104857600 cpu:               0.1 elap:               0.1
 (Enter /usr/local/g16/l9999.exe)
 B after Tr=    -0.012791   -0.000000   -0.009904
         Rot=    1.000000    0.000000    0.000000    0.000000 Ang=   0.00 deg.
 Final structure in terms of initial Z-matrix:
 O
 H,1,rOH
 H,1,rOH,2,aHOH
      Variables:
 rOH=0.94095275
 aHOH=105.52574024
 1\1\GINC-SV1-C724\FOpt\RHF\6-311G(d,p)\H2O1\LME\11-Sep-2024\0\\#p opt 
 freq hf/6-311g(d,p)\\Title Card Required\\0,1\O,0.0096695034,0.,0.0074
 869294\H,0.0012468916,0.,0.9484019842\H,0.9185053398,0.,-0.2362537175\
 \Version=ES64L-G16RevA.03\State=1-A1\HF=-76.0470119\RMSD=2.806e-09\RMS
 F=7.505e-05\Dipole=0.6646871,0.,0.5146558\Quadrupole=0.3351321,-1.0224
 501,0.687318,0.,-0.6809008,0.\PG=C02V [C2(O1),SGV(H2)]\\@


 BOOKS ARE LIGHTHOUSES ERECTED IN THE GREAT SEA OF TIME.
     -- E.P.WHIPPLE
 Leave Link 9999 at Wed Sep 11 12:44:09 2024, MaxMem=   104857600 cpu:               0.0 elap:               0.0
 Job cpu time:       0 days  0 hours  0 minutes  2.1 seconds.
 Elapsed time:       0 days  0 hours  0 minutes  2.1 seconds.
 File lengths (MBytes):  RWF=      6 Int=      0 D2E=      0 Chk=      1 Scr=      1
 Normal termination of Gaussian 16 at Wed Sep 11 12:44:09 2024.
 (Enter /usr/local/g16/l1.exe)
 Link1:  Proceeding to internal job step number  2.
 --------------------------------------------------------------------
 #P Geom=AllCheck Guess=TCheck SCRF=Check GenChk RHF/6-311G(d,p) Freq
 --------------------------------------------------------------------
 1/10=4,29=7,30=1,38=1,40=1/1,3;
 2/12=2,40=1/2;
 3/5=4,6=6,7=101,11=1,14=-4,25=1,30=1,70=2,71=2,116=1,140=1/1,2,3;
 4/5=101/1;
 5/5=2,38=6,98=1/2;
 8/6=4,10=90,11=11/1;
 10/13=10,15=4/2;
 11/6=3,8=1,9=11,15=111,16=1/1,2,10;
 10/6=1/2;
 6/7=2,8=2,9=2,10=2,28=1/1;
 7/8=1,10=1,25=1/1,2,3,16;
 1/10=4,30=1/3;
 99//99;
 Leave Link    1 at Wed Sep 11 12:44:09 2024, MaxMem=   104857600 cpu:               0.0 elap:               0.0
 (Enter /usr/local/g16/l101.exe)
 Structure from the checkpoint file:  "h2o_gaussian.chk"
 -------------------
 Title Card Required
 -------------------
 Charge =  0 Multiplicity = 1
 Redundant internal coordinates found in file.  (old form).
 O,0,0.0096695034,0.,0.0074869294
 H,0,0.0012468916,0.,0.9484019842
 H,0,0.9185053398,0.,-0.2362537175
 Recover connectivity data from disk.
 ITRead=  0  0  0
 MicOpt= -1 -1 -1
 NAtoms=      3 NQM=        3 NQMF=       0 NMMI=      0 NMMIF=      0
                NMic=       0 NMicF=      0.
                    Isotopes and Nuclear Properties:
 (Nuclear quadrupole moments (NQMom) in fm**2, nuclear magnetic moments (NMagM)
  in nuclear magnetons)

  Atom         1           2           3
 IAtWgt=          16           1           1
 AtmWgt=  15.9949146   1.0078250   1.0078250
 NucSpn=           0           1           1
 AtZEff=   5.6000000   1.0000000   1.0000000
 NQMom=    0.0000000   0.0000000   0.0000000
 NMagM=    0.0000000   2.7928460   2.7928460
 AtZNuc=   8.0000000   1.0000000   1.0000000
 Leave Link  101 at Wed Sep 11 12:44:09 2024, MaxMem=   104857600 cpu:               0.1 elap:               0.1
 (Enter /usr/local/g16/l103.exe)

 GradGradGradGradGradGradGradGradGradGradGradGradGradGradGradGradGradGrad
 Berny optimization.
 Initialization pass.
                           ----------------------------
                           !    Initial Parameters    !
                           ! (Angstroms and Degrees)  !
 --------------------------                            --------------------------
 ! Name  Definition              Value          Derivative Info.                !
 --------------------------------------------------------------------------------
 ! R1    R(1,2)                  0.941          calculate D2E/DX2 analytically  !
 ! R2    R(1,3)                  0.941          calculate D2E/DX2 analytically  !
 ! A1    A(2,1,3)              105.5257         calculate D2E/DX2 analytically  !
 --------------------------------------------------------------------------------
 Trust Radius=3.00D-01 FncErr=1.00D-07 GrdErr=1.00D-07 EigMax=2.50D+02 EigMin=1.00D-04
 Number of steps in this run=      2 maximum allowed number of steps=      2.
 GradGradGradGradGradGradGradGradGradGradGradGradGradGradGradGradGradGrad

 Leave Link  103 at Wed Sep 11 12:44:09 2024, MaxMem=   104857600 cpu:               0.0 elap:               0.0
 (Enter /usr/local/g16/l202.exe)
                          Input orientation:                          
 ---------------------------------------------------------------------
 Center     Atomic      Atomic             Coordinates (Angstroms)
 Number     Number       Type             X           Y           Z
 ---------------------------------------------------------------------
      1          8           0        0.009670    0.000000    0.007487
      2          1           0        0.001247   -0.000000    0.948402
      3          1           0        0.918505    0.000000   -0.236254
 ---------------------------------------------------------------------
                    Distance matrix (angstroms):
                    1          2          3
     1  O    0.000000
     2  H    0.940953   0.000000
     3  H    0.940953   1.498256   0.000000
 Stoichiometry    H2O
 Framework group  C2V[C2(O),SGV(H2)]
 Deg. of freedom     2
 Full point group                 C2V     NOp   4
 RotChk:  IX=0 Diff= 1.58D-15
 Largest Abelian subgroup         C2V     NOp   4
 Largest concise Abelian subgroup C2      NOp   2
                         Standard orientation:                         
 ---------------------------------------------------------------------
 Center     Atomic      Atomic             Coordinates (Angstroms)
 Number     Number       Type             X           Y           Z
 ---------------------------------------------------------------------
      1          8           0       -0.000000    0.000000    0.113877
      2          1           0        0.000000    0.749128   -0.455508
      3          1           0       -0.000000   -0.749128   -0.455508
 ---------------------------------------------------------------------
 Rotational constants (GHZ):         870.8347477         446.7759411         295.2829825
 Leave Link  202 at Wed Sep 11 12:44:09 2024, MaxMem=   104857600 cpu:               0.0 elap:               0.0
 (Enter /usr/local/g16/l301.exe)
 Standard basis: 6-311G(d,p) (5D, 7F)
 Ernie: Thresh=  0.10000D-02 Tol=  0.10000D-05 Strict=F.
 There are    15 symmetry adapted cartesian basis functions of A1  symmetry.
 There are     2 symmetry adapted cartesian basis functions of A2  symmetry.
 There are     5 symmetry adapted cartesian basis functions of B1  symmetry.
 There are     9 symmetry adapted cartesian basis functions of B2  symmetry.
 There are    14 symmetry adapted basis functions of A1  symmetry.
 There are     2 symmetry adapted basis functions of A2  symmetry.
 There are     5 symmetry adapted basis functions of B1  symmetry.
 There are     9 symmetry adapted basis functions of B2  symmetry.
    30 basis functions,    48 primitive gaussians,    31 cartesian basis functions
     5 alpha electrons        5 beta electrons
       nuclear repulsion energy         9.3513468248 Hartrees.
 IExCor=    0 DFT=F Ex=HF Corr=None ExCW=0 ScaHFX=  1.000000
 ScaDFX=  1.000000  1.000000  1.000000  1.000000 ScalE2=  1.000000  1.000000
 IRadAn=      5 IRanWt=     -1 IRanGd=            0 ICorTp=0 IEmpDi=  4
 NAtoms=    3 NActive=    3 NUniq=    2 SFac= 2.25D+00 NAtFMM=   60 NAOKFM=F Big=F
 Integral buffers will be    131072 words long.
 Raffenetti 1 integral format.
 Two-electron integral symmetry is turned on.
 Leave Link  301 at Wed Sep 11 12:44:09 2024, MaxMem=   104857600 cpu:               0.0 elap:               0.0
 (Enter /usr/local/g16/l302.exe)
 NPDir=0 NMtPBC=     1 NCelOv=     1 NCel=       1 NClECP=     1 NCelD=      1
         NCelK=      1 NCelE2=     1 NClLst=     1 CellRange=     0.0.
 One-electron integrals computed using PRISM.
 One-electron integral symmetry used in STVInt
 NBasis=    30 RedAO= T EigKep=  1.70D-02  NBF=    14     2     5     9
 NBsUse=    30 1.00D-06 EigRej= -1.00D+00 NBFU=    14     2     5     9
 Leave Link  302 at Wed Sep 11 12:44:09 2024, MaxMem=   104857600 cpu:               0.1 elap:               0.1
 (Enter /usr/local/g16/l303.exe)
 DipDrv:  MaxL=1.
 Leave Link  303 at Wed Sep 11 12:44:09 2024, MaxMem=   104857600 cpu:               0.0 elap:               0.0
 (Enter /usr/local/g16/l401.exe)
 Initial guess from the checkpoint file:  "h2o_gaussian.chk"
 B after Tr=     0.000000   -0.000000   -0.000000
         Rot=    1.000000   -0.000000   -0.000000   -0.000000 Ang=   0.00 deg.
 Guess basis will be translated and rotated to current coordinates.
 JPrj=2 DoOrth=T DoCkMO=T.
 Initial guess orbital symmetries:
       Occupied  (A1) (A1) (B2) (A1) (B1)
       Virtual   (A1) (B2) (B2) (A1) (A1) (B1) (B2) (A1) (A1) (A2)
                 (B1) (B2) (B2) (A1) (A1) (B2) (B1) (A2) (A1) (A1)
                 (B2) (B1) (A1) (B2) (A1)
 The electronic state of the initial guess is 1-A1.
 Leave Link  401 at Wed Sep 11 12:44:09 2024, MaxMem=   104857600 cpu:               0.0 elap:               0.1
 (Enter /usr/local/g16/l502.exe)
 Keep R1 ints in memory in symmetry-blocked form, NReq=940707.
 FoFCou: FMM=F IPFlag=           0 FMFlag=           0 FMFlg1=           0
         NFxFlg=           0 DoJE=F BraDBF=F KetDBF=F FulRan=T
         wScrn=  0.000000 ICntrl=       600 IOpCl=  0 I1Cent=           0 NGrid=           0
         NMat0=    1 NMatS0=    465 NMatT0=    0 NMatD0=    1 NMtDS0=    0 NMtDT0=    0
 Petite list used in FoFCou.
 Closed shell SCF:
 Using DIIS extrapolation, IDIIS=  1040.
 NGot=   104857600 LenX=   104822859 LenY=   104821457
 Requested convergence on RMS density matrix=1.00D-08 within 128 cycles.
 Requested convergence on MAX density matrix=1.00D-06.
 Requested convergence on             energy=1.00D-06.
 No special actions if energy rises.

 Cycle   1  Pass 1  IDiag  1:
 E= -76.0470119200177    
 DIIS: error= 1.89D-09 at cycle   1 NSaved=   1.
 NSaved= 1 IEnMin= 1 EnMin= -76.0470119200177     IErMin= 1 ErrMin= 1.89D-09
 ErrMax= 1.89D-09  0.00D+00 EMaxC= 1.00D-01 BMatC= 4.05D-17 BMatP= 4.05D-17
 IDIUse=1 WtCom= 1.00D+00 WtEn= 0.00D+00
 Coeff-Com:  0.100D+01
 Coeff:      0.100D+01
 Gap=     0.653 Goal=   None    Shift=    0.000
 RMSDP=2.21D-10 MaxDP=2.05D-09              OVMax= 3.16D-09

 SCF Done:  E(RHF) =  -76.0470119200     A.U. after    1 cycles
            NFock=  1  Conv=0.22D-09     -V/T= 1.9990
 KE= 7.612287068241D+01 PE=-1.995573260473D+02 EE= 3.803609662001D+01
 Leave Link  502 at Wed Sep 11 12:44:09 2024, MaxMem=   104857600 cpu:               0.1 elap:               0.1
 (Enter /usr/local/g16/l801.exe)
 Range of M.O.s used for correlation:     1    30
 NBasis=    30 NAE=     5 NBE=     5 NFC=     0 NFV=     0
 NROrb=     30 NOA=     5 NOB=     5 NVA=    25 NVB=    25
 Leave Link  801 at Wed Sep 11 12:44:09 2024, MaxMem=   104857600 cpu:               0.0 elap:               0.0
 (Enter /usr/local/g16/l1002.exe)
 Minotr:  Closed shell wavefunction.
          Direct CPHF calculation.
          Differentiating once with respect to electric field.
                with respect to dipole field.
          Electric field/nuclear overlap derivatives assumed to be zero.
          Using symmetry in CPHF.
          Requested convergence is 1.0D-08 RMS, and 1.0D-07 maximum.
          Secondary convergence is 1.0D-12 RMS, and 1.0D-12 maximum.
          NewPWx=F KeepS1=T KeepF1=T KeepIn=T MapXYZ=F SortEE=F KeepMc=T.
 Keep R1 ints in memory in symmetry-blocked form, NReq=941169.
 FoFCou: FMM=F IPFlag=           0 FMFlag=           0 FMFlg1=           0
         NFxFlg=           0 DoJE=F BraDBF=F KetDBF=F FulRan=T
         wScrn=  0.000000 ICntrl=       600 IOpCl=  0 I1Cent=           0 NGrid=           0
         NMat0=    1 NMatS0=    465 NMatT0=    0 NMatD0=    1 NMtDS0=    0 NMtDT0=    0
 Petite list used in FoFCou.
          MDV=     104857600 using IRadAn=       1.
          Solving linear equations simultaneously, MaxMat=       0.
          There are     3 degrees of freedom in the 1st order CPHF.  IDoFFX=0 NUNeed=     3.
      3 vectors produced by pass  0 Test12= 4.17D-15 3.33D-08 XBig12= 1.25D+00 6.32D-01.
 AX will form     3 AO Fock derivatives at one time.
      3 vectors produced by pass  1 Test12= 4.17D-15 3.33D-08 XBig12= 5.88D-02 1.21D-01.
      3 vectors produced by pass  2 Test12= 4.17D-15 3.33D-08 XBig12= 7.67D-03 3.86D-02.
      3 vectors produced by pass  3 Test12= 4.17D-15 3.33D-08 XBig12= 2.51D-04 5.61D-03.
      3 vectors produced by pass  4 Test12= 4.17D-15 3.33D-08 XBig12= 4.66D-06 9.29D-04.
      3 vectors produced by pass  5 Test12= 4.17D-15 3.33D-08 XBig12= 4.17D-08 9.95D-05.
      3 vectors produced by pass  6 Test12= 4.17D-15 3.33D-08 XBig12= 5.59D-10 1.32D-05.
      3 vectors produced by pass  7 Test12= 4.17D-15 3.33D-08 XBig12= 5.86D-12 8.01D-07.
      1 vectors produced by pass  8 Test12= 4.17D-15 3.33D-08 XBig12= 3.19D-14 6.68D-08.
 InvSVY:  IOpt=1 It=  1 EMax= 1.11D-16
 Solved reduced A of dimension    25 with     3 vectors.
 End of Minotr F.D. properties file   721 does not exist.
 End of Minotr F.D. properties file   722 does not exist.
 End of Minotr F.D. properties file   788 does not exist.
 Leave Link 1002 at Wed Sep 11 12:44:09 2024, MaxMem=   104857600 cpu:               0.1 elap:               0.1
 (Enter /usr/local/g16/l1101.exe)
 Using compressed storage, NAtomX=     3.
 Will process      4 centers per pass.
 Leave Link 1101 at Wed Sep 11 12:44:09 2024, MaxMem=   104857600 cpu:               0.1 elap:               0.1
 (Enter /usr/local/g16/l1102.exe)
 Symmetrizing basis deriv contribution to polar:
 IMax=3 JMax=2 DiffMx= 0.00D+00
 Leave Link 1102 at Wed Sep 11 12:44:09 2024, MaxMem=   104857600 cpu:               0.0 elap:               0.0
 (Enter /usr/local/g16/l1110.exe)
 Forming Gx(P) for the SCF density, NAtomX=     3.
 Integral derivatives from FoFJK, PRISM(SPDF).
 Do as many integral derivatives as possible in FoFJK.
 G2DrvN: MDV=     104857260.
 G2DrvN: will do     4 centers at a time, making    1 passes.
 PxScal for G2LodP:  IOpCl= 0 ISclPx=1 IMOff=     1 NMtTot=     4 NTT=     465 ScalPx= 1.00D+00
 Calling FoFCou, ICntrl=  3107 FMM=F I1Cent=   0 AccDes= 0.00D+00.
 FoFJK:  IHMeth= 1 ICntrl=    3107 DoSepK=F KAlg= 0 I1Cent=           0 FoldK=F
[...]
 
                     E (Thermal)             CV                S
                      KCal/Mol        Cal/Mol-Kelvin    Cal/Mol-Kelvin
 Total                   16.260              5.992             44.948
 Electronic               0.000              0.000              0.000
 Translational            0.889              2.981             34.608
 Rotational               0.889              2.981             10.335
 Vibrational             14.483              0.030              0.004
                       Q            Log10(Q)             Ln(Q)
 Total Bot       0.295038D-02         -2.530122         -5.825820
 Total V=0       0.121659D+09          8.085144         18.616733
 Vib (Bot)       0.242565D-10        -10.615173        -24.442338
 Vib (V=0)       0.100021D+01          0.000093          0.000215
 Electronic      0.100000D+01          0.000000          0.000000
 Translational   0.300431D+07          6.477745         14.915559
 Rotational      0.404861D+02          1.607306          3.700959
 
                                                         Title Card Required
                                                             IR Spectrum
 
      4 4                                                                       1                                                    
      2 1                                                                       7                                                    
      3 4                                                                       5                                                    
      8 2                                                                       0                                                    
 
      X X                                                                       X                                                    
      X X                                                                       X                                                    
      X X                                                                       X                                                    
      X X                                                                       X                                                    
      X                                                                         X                                                    
      X                                                                         X                                                    
      X                                                                         X                                                    
      X                                                                         X                                                    
      X                                                                         X                                                    
      X                                                                         X                                                    
      X                                                                         X                                                    
      X                                                                         X                                                    
      X                                                                         X                                                    
      X                                                                         X                                                    
      X                                                                         X                                                    
                                                                                X                                                    
                                                                                X                                                    
                                                                                X                                                    
                                                                                X                                                    
                                                                                X                                                    
 
 
                                                         Title Card Required
                                                            Raman Spectrum
 
      4 4                                                                       1                                                    
      2 1                                                                       7                                                    
      3 4                                                                       5                                                    
      8 2                                                                       0                                                    
 
      X X                                                                       X                                                    
      X X                                                                       X                                                    
      X X                                                                                                                            
      X X                                                                                                                            
      X X                                                                                                                            
      X X                                                                                                                            
      X X                                                                                                                            
      X X                                                                                                                            
      X X                                                                                                                            
      X X                                                                                                                            
        X                                                                                                                            
        X                                                                                                                            
        X                                                                                                                            
        X                                                                                                                            
        X                                                                                                                            
        X                                                                                                                            
        X                                                                                                                            
        X                                                                                                                            
        X                                                                                                                            
        X                                                                                                                            
 
 ***** Axes restored to original set *****
 -------------------------------------------------------------------
 Center     Atomic                   Forces (Hartrees/Bohr)
 Number     Number              X              Y              Z
 -------------------------------------------------------------------
      1        8          -0.000130180    0.000000000   -0.000100796
      2        1           0.000108446    0.000000000   -0.000005598
      3        1           0.000021733   -0.000000000    0.000106394
 -------------------------------------------------------------------
 Cartesian Forces:  Max     0.000130180 RMS     0.000075048
 Force constants in Cartesian coordinates: 
                1             2             3             4             5 
      1  0.636536D+00
      2  0.000000D+00 -0.153015D-03
      3 -0.129669D+00  0.000000D+00  0.703605D+00
      4 -0.538257D-01  0.000000D+00 -0.360182D-01  0.552743D-01
      5  0.000000D+00  0.765074D-04  0.000000D+00  0.000000D+00 -0.132459D-04
      6  0.289081D-01  0.000000D+00 -0.616244D+00 -0.213940D-01  0.000000D+00
      7 -0.582710D+00  0.000000D+00  0.165687D+00 -0.144854D-02  0.000000D+00
      8  0.000000D+00  0.765074D-04  0.000000D+00  0.000000D+00 -0.632615D-04
      9  0.100760D+00  0.000000D+00 -0.873603D-01  0.574123D-01  0.000000D+00
                6             7             8             9 
      6  0.630597D+00
      7 -0.751403D-02  0.584158D+00
      8  0.000000D+00  0.000000D+00 -0.132459D-04
      9 -0.143531D-01 -0.158173D+00  0.000000D+00  0.101713D+00
 FormGI is forming the generalized inverse of G from B-inverse, IUseBI=4.
 Force constants in internal coordinates: 
                1             2             3 
      1  0.630934D+00
      2 -0.339380D-02  0.630934D+00
      3  0.289872D-01  0.289872D-01  0.173689D+00
 Leave Link  716 at Wed Sep 11 12:44:10 2024, MaxMem=   104857600 cpu:               0.0 elap:               0.0
 (Enter /usr/local/g16/l103.exe)

 GradGradGradGradGradGradGradGradGradGradGradGradGradGradGradGradGradGrad
 Berny optimization.
 Red2BG is reusing G-inverse.
 Internal  Forces:  Max     0.000192736 RMS     0.000111406
 Search for a local minimum.
 Step number   1 out of a maximum of    2
 All quantities printed in internal units (Hartrees-Bohrs-Radians)
 Second derivative matrix not updated -- analytic derivatives used.
 The second derivative matrix:
                          R1        R2        A1
           R1           0.63093
           R2          -0.00339   0.63093
           A1           0.02899   0.02899   0.17369
 ITU=  0
     Eigenvalues ---    0.17002   0.63121   0.63433
 Angle between quadratic step and forces=   5.74 degrees.
 Linear search not attempted -- first point.
 Iteration  1 RMS(Cart)=  0.00060600 RMS(Int)=  0.00000023
 Iteration  2 RMS(Cart)=  0.00000021 RMS(Int)=  0.00000000
 ITry= 1 IFail=0 DXMaxC= 6.19D-04 DCOld= 1.00D+10 DXMaxT= 3.00D-01 DXLimC= 3.00D+00 Rises=F
 ClnCor:  largest displacement from symmetrization is 4.16D-15 for atom     3.
 Variable       Old X    -DE/DX   Delta X   Delta X   Delta X     New X
                                 (Linear)    (Quad)   (Total)
    R1        1.77814  -0.00001   0.00000   0.00004   0.00004   1.77818
    R2        1.77814  -0.00001   0.00000   0.00004   0.00004   1.77818
    A1        1.84177  -0.00019   0.00000  -0.00112  -0.00112   1.84065
         Item               Value     Threshold  Converged?
 Maximum Force            0.000193     0.000450     YES
 RMS     Force            0.000111     0.000300     YES
 Maximum Displacement     0.000619     0.001800     YES
 RMS     Displacement     0.000606     0.001200     YES
 Predicted change in Energy=-1.079968D-07
 Optimization completed.
    -- Stationary point found.
                           ----------------------------
                           !   Optimized Parameters   !
                           ! (Angstroms and Degrees)  !
 --------------------------                            --------------------------
 ! Name  Definition              Value          Derivative Info.                !
 --------------------------------------------------------------------------------
 ! R1    R(1,2)                  0.941          -DE/DX =    0.0                 !
 ! R2    R(1,3)                  0.941          -DE/DX =    0.0                 !
 ! A1    A(2,1,3)              105.5257         -DE/DX =   -0.0002              !
 --------------------------------------------------------------------------------
 GradGradGradGradGradGradGradGradGradGradGradGradGradGradGradGradGradGrad

 Leave Link  103 at Wed Sep 11 12:44:10 2024, MaxMem=   104857600 cpu:               0.0 elap:               0.0
 (Enter /usr/local/g16/l9999.exe)

 ----------------------------------------------------------------------

 Electric dipole moment (input orientation):
 (Debye = 10**-18 statcoulomb cm , SI units = C m)
                  (au)            (Debye)         (10**-30 SI)
   Tot        0.840642D+00      0.213670D+01      0.712726D+01
   x          0.664687D+00      0.168947D+01      0.563545D+01
   y          0.000000D+00      0.000000D+00      0.000000D+00
   z          0.514656D+00      0.130812D+01      0.436343D+01

 Dipole polarizability, Alpha (input orientation).
 (esu units = cm**3 , SI units = C**2 m**2 J**-1)
 Alpha(0;0):
               (au)            (10**-24 esu)      (10**-40 SI)
   iso        0.537681D+01      0.796761D+00      0.886517D+00
   aniso      0.286784D+01      0.424971D+00      0.472844D+00
   xx         0.595291D+01      0.882131D+00      0.981503D+00
   yx         0.000000D+00      0.000000D+00      0.000000D+00
   yy         0.377317D+01      0.559125D+00      0.622111D+00
   zx        -0.872808D+00     -0.129337D+00     -0.143907D+00
   zy         0.000000D+00      0.000000D+00      0.000000D+00
   zz         0.640436D+01      0.949028D+00      0.105594D+01

 First dipole hyperpolarizability, Beta (input orientation).
 ||, _|_  parallel and perpendicular components, (z) with respect to z axis,
 vector components x,y,z.  Values do not include the 1/n! factor of 1/2.
 (esu units = statvolt**-1 cm**4 , SI units = C**3 m**3 J**-2)
 Beta(0;0,0):
               (au)            (10**-30 esu)      (10**-50 SI)
   || (z)     0.104831D+02      0.905655D-01      0.336125D-01
   _|_(z)     0.349435D+01      0.301885D-01      0.112042D-01
   x          0.676953D+02      0.584835D+00      0.217056D+00
   y          0.000000D+00      0.000000D+00      0.000000D+00
   z          0.524153D+02      0.452827D+00      0.168062D+00
   ||         0.171231D+02      0.147930D+00      0.549029D-01
   xxx        0.190041D+02      0.164180D+00      0.609340D-01
   xxy        0.000000D+00      0.000000D+00      0.000000D+00
   yxy        0.208186D+01      0.179856D-01      0.667519D-02
   yyy        0.000000D+00      0.000000D+00      0.000000D+00
   xxz       -0.451121D+01     -0.389733D-01     -0.144646D-01
   yxz        0.000000D+00      0.000000D+00      0.000000D+00
   yyz        0.161195D+01      0.139260D-01      0.516849D-02
   zxz        0.147916D+01      0.127788D-01      0.474273D-02
   zyz        0.000000D+00      0.000000D+00      0.000000D+00
   zzz        0.203710D+02      0.175990D+00      0.653169D-01

 ----------------------------------------------------------------------

 Dipole orientation:
     8         -0.00000000         -0.00000000          0.02310984
     1         -1.41564712         -0.00000000          1.09909115
     1          1.41564712          0.00000000          1.09909115

 Electric dipole moment (dipole orientation):
 (Debye = 10**-18 statcoulomb cm , SI units = C m)
                  (au)            (Debye)         (10**-30 SI)
   Tot        0.840642D+00      0.213670D+01      0.712726D+01
   x          0.000000D+00      0.000000D+00      0.000000D+00
   y          0.000000D+00      0.000000D+00      0.000000D+00
   z          0.840642D+00      0.213670D+01      0.712726D+01

 Dipole polarizability, Alpha (dipole orientation).
 (esu units = cm**3 , SI units = C**2 m**2 J**-1)
 Alpha(0;0):
               (au)            (10**-24 esu)      (10**-40 SI)
   iso        0.537681D+01      0.796761D+00      0.886517D+00
   aniso      0.286784D+01      0.424971D+00      0.472844D+00
   xx         0.708016D+01      0.104917D+01      0.116736D+01
   yx         0.000000D+00      0.000000D+00      0.000000D+00
   yy         0.377317D+01      0.559125D+00      0.622111D+00
   zx         0.000000D+00      0.000000D+00      0.000000D+00
   zy         0.000000D+00      0.000000D+00      0.000000D+00
   zz         0.527711D+01      0.781987D+00      0.870078D+00

 First dipole hyperpolarizability, Beta (dipole orientation).
 ||, _|_  parallel and perpendicular components, (z) with respect to z axis,
 vector components x,y,z.  Values do not include the 1/n! factor of 1/2.
 (esu units = statvolt**-1 cm**4 , SI units = C**3 m**3 J**-2)
 Beta(0;0,0):
               (au)            (10**-30 esu)      (10**-50 SI)
   || (z)     0.171231D+02      0.147930D+00      0.549029D-01
   _|_(z)     0.570770D+01      0.493101D-01      0.183010D-01
   x          0.000000D+00      0.000000D+00      0.000000D+00
   y          0.000000D+00      0.000000D+00      0.000000D+00
   z          0.856155D+02      0.739652D+00      0.274514D+00
   ||         0.171231D+02      0.147930D+00      0.549029D-01
   xxx        0.000000D+00      0.000000D+00      0.000000D+00
   xxy        0.000000D+00      0.000000D+00      0.000000D+00
   yxy        0.000000D+00      0.000000D+00      0.000000D+00
   yyy        0.000000D+00      0.000000D+00      0.000000D+00
   xxz        0.157017D+02      0.135651D+00      0.503454D-01
   yxz        0.000000D+00      0.000000D+00      0.000000D+00
   yyz        0.263297D+01      0.227468D-01      0.844224D-02
   zxz        0.000000D+00      0.000000D+00      0.000000D+00
   zyz        0.000000D+00      0.000000D+00      0.000000D+00
   zzz        0.102038D+02      0.881530D-01      0.327171D-01

 ----------------------------------------------------------------------
 1\1\GINC-SV1-C724\Freq\RHF\6-311G(d,p)\H2O1\LME\11-Sep-2024\0\\#P Geom
 =AllCheck Guess=TCheck SCRF=Check GenChk RHF/6-311G(d,p) Freq\\Title C
 ard Required\\0,1\O,0.0096695034,0.,0.0074869294\H,0.0012468916,0.,0.9
 484019842\H,0.9185053398,0.,-0.2362537175\\Version=ES64L-G16RevA.03\St
 ate=1-A1\HF=-76.0470119\RMSD=2.206e-10\RMSF=7.505e-05\ZeroPoint=0.0230
 783\Thermal=0.0259126\Dipole=0.6646871,0.,0.5146558\DipoleDeriv=-0.457
 5316,0.,0.0553605,0.,-0.7812797,0.,0.0553605,0.,-0.486166,0.2950794,0.
 ,-0.0721974,0.,0.3906398,0.,-0.0174628,0.,0.1767694,0.1624522,0.,0.016
 8369,0.,0.3906398,0.,-0.0378977,0.,0.3093966\Polar=5.9529128,0.,3.7731
 655,-0.8728082,0.,6.4043599\PolarDeriv=-6.5669828,0.,-0.0699166,0.2912
 51,0.,-1.3359576,0.,-1.105182,0.,0.,-0.8557233,0.,0.1255502,0.,-0.0541
 352,-1.121952,0.,-6.2446604,0.124051,0.,0.2795458,1.3452534,0.,0.41902
 14,0.,-0.1624879,0.,0.,1.3513989,0.,0.4533489,0.,-0.2888216,-0.4427173
 ,0.,7.008213,6.4429318,0.,-0.2096292,-1.6365044,0.,0.9169362,0.,1.2676
 699,0.,0.,-0.4956756,0.,-0.5788991,0.,0.3429567,1.5646693,0.,-0.763552
 5\HyperPolar=19.004081,0.,2.0818592,0.,-4.5112109,0.,1.6119476,1.47916
 24,0.,20.3710325\Quadrupole=0.3351321,-1.0224501,0.687318,0.,-0.680900
 8,0.\PG=C02V [C2(O1),SGV(H2)]\NImag=0\\0.63653551,0.,-0.00015301,-0.12
 966856,0.,0.70360465,-0.05382574,0.,-0.03601822,0.05527428,0.,0.000076
 51,0.,0.,-0.00001325,0.02890807,0.,-0.61624434,-0.02139404,0.,0.630597
 44,-0.58270977,0.,0.16568678,-0.00144854,0.,-0.00751403,0.58415831,0.,
 0.00007651,0.,0.,-0.00006326,0.,0.,-0.00001325,0.10076049,0.,-0.087360
 31,0.05741226,0.,-0.01435310,-0.15817275,0.,0.10171341\\0.00013018,0.,
 0.00010080,-0.00010845,0.,0.00000560,-0.00002173,0.,-0.00010639\\\@


 THERE ARE PEOPLE SO ADDICTED TO EXAGERATING THEY
 CAN'T TELL THE TRUTH WITHOUT LYING. -- FORTUNE COOKIE
 Job cpu time:       0 days  0 hours  0 minutes  1.5 seconds.
 Elapsed time:       0 days  0 hours  0 minutes  1.4 seconds.
 File lengths (MBytes):  RWF=      6 Int=      0 D2E=      0 Chk=      1 Scr=      1
 Normal termination of Gaussian 16 at Wed Sep 11 12:44:10 2024.
