
 Working directory              : /tmp/lme/molpro.Nvrls7ZpVx/
 Global scratch directory       : /tmp/lme/molpro.Nvrls7ZpVx/
 Wavefunction directory         : /home/lme/wfu/
 Main file repository           : /tmp/lme/molpro.Nvrls7ZpVx/

 id        : liedlgroup

 Nodes     nprocs
 sv1-c724     6
 GA implementation: MPI file
 GA implementation (serial work in mppx): MPI file

 Using customized tuning parameters: mindgm=1; mindgv=20; mindgc=4; mindgr=1; noblas=0; minvec=7
 default implementation of scratch files=sf  


 Variables initialized (1042), CPU time= 0.00 sec
 ***,water dimer
  memory, 600, m
                                                                                 !gthresh,optgrad=1.d-7,twoint=1.d-14,prefac=1.d-16
  orient,mass
  geometry={
 O,       1.23200,      1.00800,      0.30000
 C,       0.00000,      0.95200,      0.00000
 F,       4.33819,      1.38438,     -0.60387
 H,       3.99179,      1.51666,      0.74441
 H,      -0.32474,      1.15490,     -1.03120
 H,      -0.74299,      0.70056,      0.77120
 }
 
 
 mass,iso
  basis=6-311g(d,p)
 
  {hf
  start,atden}
 
 
  optg
  {frequencies, symm=auto, print=0,analytical}
  put,molden, aldehyd_hf.molden
 Commands initialized (847), CPU time= 0.02 sec, 718 directives.
 Default parameters read. Elapsed time= 0.14 sec

 Checking input...
 Passed
1


                                         ***  PROGRAM SYSTEM MOLPRO  ***
                                       Copyright, TTI GmbH Stuttgart, 2015
                                    Version 2024.1 linked Wed Jan 31 11:42:09 2024


 **********************************************************************************************************************************
 LABEL *   water dimer                                                                                                                                                   
  (6 PROC) 64 bit mpp version                                                            DATE: 14-Oct-24          TIME: 08:28:06  
 **********************************************************************************************************************************

 SHA1:             675817fde4514a4a933b69e420913a90cee4ef91
 **********************************************************************************************************************************

 Memory per process:       600 MW
 Total memory per node:   3600 MW

 GA preallocation disabled
 GA check disabled

 Variable memory set to 600.0 MW

 ZCENTRE=MASS


 Geometry recognized as XYZ



 Using masses of most abundant isotopes

 **********************************************************************************************************************************
 SETTING BASIS          =    6-311G(D,P)


 Recomputing integrals since basis changed


 Using spherical harmonics

 Library entry O      S 6-311G               selected for orbital group  1
 Library entry O      P 6-311G               selected for orbital group  1
 Library entry O      D 6-311G*              selected for orbital group  1
 Library entry C      S 6-311G               selected for orbital group  2
 Library entry C      P 6-311G               selected for orbital group  2
 Library entry C      D 6-311G*              selected for orbital group  2
 Library entry F      S 6-311G               selected for orbital group  3
 Library entry F      P 6-311G               selected for orbital group  3
 Library entry F      D 6-311G*              selected for orbital group  3
 Library entry H      S 6-311G               selected for orbital group  4
 Library entry H      P 6-311G**             selected for orbital group  4


 PROGRAM * SEWARD (Integral evaluation for generally contracted gaussian basis sets)     Author: Roland Lindh, 1990

 Geometry written to block  1 of record 700

 Orientation using atomic masses  
 Molecule type: Asymmetric top
 Rotational constants:       2.6639517      2.7385365     93.5622867 GHz

 Point group  C1  



 ATOMIC COORDINATES

 NR  ATOM    CHARGE       X              Y              Z

   1  O       8.00   -0.032461551    0.529960979   -1.766544587
   2  C       6.00    0.021307245   -0.411329393   -3.971975145
   3  F       9.00   -0.018720484   -0.214055755    4.342853607
   4  H       1.00    0.525183279    2.160349220    3.318621689
   5  H       1.00    0.276218213   -2.459119588   -4.222088560
   6  H       1.00   -0.187017162    0.820677838   -5.633230017

 Bond lengths in Bohr (Angstrom)

 1-2  2.398508410  2-5  2.078696948  2-6  2.078703593
     ( 1.269235991)     ( 1.099999053)     ( 1.100002570)

 Bond angles

  1-2-5  119.99990929   1-2-6  120.00013715   5-2-6  119.99995356

 NUCLEAR CHARGE:                   26
 NUMBER OF PRIMITIVE AOS:         120
 NUMBER OF SYMMETRY AOS:          117
 NUMBER OF CONTRACTIONS:           72   (   72A   )
 NUMBER OF INNER CORE ORBITALS:     0   (    0A   )
 NUMBER OF OUTER CORE ORBITALS:     3   (    3A   )
 NUMBER OF VALENCE ORBITALS:       15   (   15A   )


 NUCLEAR REPULSION ENERGY   56.18383067


 Eigenvalues of metric

         1 0.154E-01 0.231E-01 0.306E-01 0.334E-01 0.484E-01 0.804E-01 0.839E-01 0.878E-01


 Contracted 2-electron integrals neglected if value below      1.0D-11
 AO integral compression algorithm  1   Integral accuracy      1.0D-11

     10.224 MB (compressed) written to integral file ( 31.5%)

     Node minimum: 1.311 MB, node maximum: 2.097 MB


 NUMBER OF SORTED TWO-ELECTRON INTEGRALS:     576846.     BUFFER LENGTH:  32768
 NUMBER OF SEGMENTS:   1  SEGMENT LENGTH:     576846      RECORD LENGTH: 524288

 Memory used in sort:       1.13 MW

 SORT1 READ     3912792. AND WROTE      312513. INTEGRALS IN      1 RECORDS. CPU TIME:     0.05 SEC, REAL TIME:     0.05 SEC
 SORT2 READ     1891936. AND WROTE     3454506. INTEGRALS IN     48 RECORDS. CPU TIME:     0.03 SEC, REAL TIME:     0.03 SEC

 Node minimum:      574656.  Node maximum:      576846. integrals

 OPERATOR DM      FOR CENTER  0  COORDINATES:    0.000000    0.000000    0.000000


 **********************************************************************************************************************************
 DATASETS  * FILE   NREC   LENGTH (MB)   RECORD NAMES
              1      18       28.87       500      610      700      900      950      970     1000      129      960     1100   
                                          VAR    BASINP    GEOM    SYMINP    ZMAT    AOBASIS   BASIS     P2S    ABASIS      S 
                                         1400     1410     1200     1210     1080     1600     1650     1700   
                                           T        V       H0       H01     AOSYM     SMH    MOLCAS    OPER   

 PROGRAMS   *        TOTAL       INT
 CPU TIMES  *         0.67      0.43
 REAL TIME  *         1.45 SEC
 DISK USED  *        29.28 MB (local),      206.80 MB (total)
 GA USED    *         0.00 MB       (max)       0.00 MB       (current)
 **********************************************************************************************************************************


 Program * Restricted Hartree-Fock

 Orbital guess generated from atomic densities.

 Initial occupancy:  13

 NELEC=   26   SYM=1   MS2= 0   THRE=1.0D-08   THRD=1.0D-06   THRG=1.0D-06  HFMA2=F  DIIS_START=2   DIIS_MAX=10   DIIS_INCORE=F

 Level shifts:    0.00 (CLOSED)    0.00 (OPEN)    0.30 (GAP_MIN)

 ITER           ETOT              DE          GRAD        DDIFF     DIIS  NEXP   TIME(IT)  TIME(TOT)  DIAG
   1     -213.68437709    -213.68437709     0.00D+00     0.62D-01     0     0       0.01      0.03    start
   2     -213.74829307      -0.06391598     0.13D-01     0.11D-01     1     0       0.00      0.03    diag
   3     -213.81153200      -0.06323892     0.12D-01     0.48D-02     2     0       0.01      0.04    diag
   4     -213.81328862      -0.00175662     0.13D-02     0.98D-03     3     0       0.01      0.05    diag
   5     -213.81367593      -0.00038731     0.64D-03     0.44D-03     4     0       0.00      0.05    diag
   6     -213.81375664      -0.00008071     0.27D-03     0.23D-03     5     0       0.01      0.06    diag
   7     -213.81376383      -0.00000719     0.71D-04     0.67D-04     6     0       0.00      0.06    diag
   8     -213.81376520      -0.00000138     0.27D-04     0.32D-04     7     0       0.01      0.07    fixocc
   9     -213.81376547      -0.00000026     0.11D-04     0.17D-04     8     0       0.00      0.07    diag
  10     -213.81376548      -0.00000002     0.27D-05     0.46D-05     9     0       0.01      0.08    diag/orth
  11     -213.81376548      -0.00000000     0.27D-06     0.39D-06     9     0       0.00      0.08    diag
  12     -213.81376548      -0.00000000     0.47D-07     0.52D-07     0     0       0.01      0.09    diag

 Final occupancy:  13

 !RHF STATE 1.1 Energy               -213.813765483870
  RHF One-electron energy            -408.166160160062
  RHF Two-electron energy             138.168564010887
  RHF Kinetic energy                  213.153005632527
  RHF Nuclear energy                   56.183830665305
  RHF Virial quotient                  -1.003099932133

 !RHF STATE 1.1 Dipole moment           0.26266645     0.53685680    -1.62852274
 Dipole moment /Debye                   0.66763153     1.36455387    -4.13929192

 Orbital energies:

           1.1          2.1          3.1          4.1          5.1          6.1          7.1          8.1          9.1         10.1
    -26.244108   -20.577112   -11.356133    -1.467032    -1.369745    -0.881480    -0.690545    -0.637108    -0.578101    -0.576976

          11.1         12.1         13.1         14.1         15.1
     -0.571149    -0.512265    -0.452764     0.060212     0.105257


 HOMO     13.1    -0.452764 =     -12.3203eV
 LUMO     14.1     0.060212 =       1.6384eV
 LUMO-HOMO         0.512976 =      13.9588eV

 Orbitals saved in record  2100.2


 **********************************************************************************************************************************
 DATASETS  * FILE   NREC   LENGTH (MB)   RECORD NAMES
              1      18       28.87       500      610      700      900      950      970     1000      129      960     1100   
                                          VAR    BASINP    GEOM    SYMINP    ZMAT    AOBASIS   BASIS     P2S    ABASIS      S 
                                         1400     1410     1200     1210     1080     1600     1650     1700   
                                           T        V       H0       H01     AOSYM     SMH    MOLCAS    OPER   

              2       4        0.55       700     1000      520     2100   
                                         GEOM     BASIS   MCVARS     RHF  

 PROGRAMS   *        TOTAL    HF-SCF       INT
 CPU TIMES  *         0.78      0.10      0.43
 REAL TIME  *         1.57 SEC
 DISK USED  *        29.85 MB (local),      210.23 MB (total)
 GA USED    *         0.00 MB       (max)       0.00 MB       (current)
 **********************************************************************************************************************************


 PROGRAM * OPT (Geometry optimization)     Authors: F. Eckert and H.-J. Werner


 BFGS update of hessian

 *** Long output written to logfile /home/lme/Theoretische_Chemie/Paper/Calc_Paper/aldehyd_hf.log ***


 Geometry optimization using default procedure for command HF-SCF

 Geometry written to block  1 of record 700

 PQS Optimization using delocalized internal coordinates

 Point group c1. Number of degrees of freedom:   12

 ITER.   ENERGY(OLD)    ENERGY(NEW)      DE          GRADMAX     GRADNORM    GRADRMS     STEPMAX     STEPLEN     STEPRMS   CPU-time
   1  -213.81376548  -213.90057158    -0.08680610  0.13513700  0.20335365  0.05870314  0.42750906  0.50000000  0.14433757      0.62
   2  -213.90057158  -213.94729260    -0.04672102  0.10973924  0.15565118  0.04493263  0.36084390  0.50000000  0.14433757      1.24
   3  -213.94729260  -213.94783210    -0.00053950  0.01897277  0.03528107  0.01018477  0.05150659  0.09718265  0.02805421      1.85
   4  -213.94783210  -213.94501399     0.00281810  0.02060158  0.02539664  0.00733138  0.13271307  0.24449808  0.07058052      2.47
   5  -213.94501399  -213.94710757    -0.00209358  0.02417769  0.03612897  0.01042954  0.17255700  0.24710219  0.07133226      3.08
   6  -213.94710757  -213.94828966    -0.00118209  0.04183143  0.05697497  0.01644726  0.08890561  0.13086566  0.03777766      3.70
   7  -213.94828966  -213.94931661    -0.00102695  0.01832083  0.02313804  0.00667938  0.07037296  0.13098683  0.03781264      4.29
   8  -213.94931661  -213.94986478    -0.00054817  0.00427589  0.00788242  0.00227546  0.10215577  0.16035516  0.04629055      4.90
   9  -213.94986478  -213.95150632    -0.00164154  0.00487848  0.00942582  0.00272100  0.30856966  0.50000000  0.14433757      5.50
  10  -213.95150632  -213.95333215    -0.00182584  0.01415501  0.02325096  0.00671197  0.27955100  0.50000000  0.14433757      6.11
  11  -213.95333215  -213.95541598    -0.00208383  0.02024322  0.03116612  0.00899688  0.28729967  0.50000000  0.14433757      6.73
  12  -213.95541598  -213.95636435    -0.00094837  0.01863790  0.02810447  0.00811306  0.28480651  0.50000000  0.14433757      7.36
  13  -213.95636435  -213.95647777    -0.00011342  0.01094102  0.01610862  0.00465016  0.12282208  0.23349280  0.06740357      7.96
  14  -213.95647777  -213.95656791    -0.00009014  0.00933494  0.01383692  0.00399438  0.13166998  0.16802920  0.04850585      8.55
  15  -213.95656791  -213.95659610    -0.00002818  0.00612768  0.00883174  0.00254950  0.15967459  0.20643362  0.05959225      9.17
  16  -213.95659610  -213.95660715    -0.00001105  0.00542629  0.00784767  0.00226543  0.12343526  0.15091024  0.04356403      9.72
  17  -213.95660715  -213.95661406    -0.00000691  0.00504519  0.00729602  0.00210618  0.13008627  0.18173473  0.05246230     10.26
  18  -213.95661406  -213.95664143    -0.00002737  0.00482999  0.00699531  0.00201937  0.09430079  0.14762670  0.04261616     10.79
  19  -213.95664143  -213.95649051     0.00015091  0.00400987  0.00582455  0.00168140  0.11252895  0.23756092  0.06857793     11.34
  20  -213.95649051  -213.95661845    -0.00012793  0.00744776  0.01087673  0.00313984  0.07116455  0.09754755  0.02815955     11.89
  21  -213.95661845  -213.95669073    -0.00007228  0.00689065  0.01012082  0.00292163  0.12680840  0.13051446  0.03767628     12.42
  22  -213.95669073  -213.95671378    -0.00002305  0.00296387  0.00462105  0.00133398  0.07553947  0.07864178  0.02270193     12.97
  23  -213.95671378  -213.95674471    -0.00003094  0.00120846  0.00246371  0.00071121  0.14018178  0.14430345  0.04165682     13.58
  24  -213.95674471  -213.95677591    -0.00003120  0.00077901  0.00131180  0.00037868  0.18963839  0.19555066  0.05645061     14.21
  25  -213.95677591  -213.95681308    -0.00003717  0.00097910  0.00154001  0.00044456  0.18350922  0.19280616  0.05565834     14.82
  26  -213.95681308  -213.95685636    -0.00004328  0.00084497  0.00146956  0.00042423  0.34361253  0.37741686  0.10895086     15.44
  27  -213.95685636  -213.95688382    -0.00002746  0.00109784  0.00192803  0.00055658  0.13100424  0.19001886  0.05485372     16.05
  28  -213.95688382  -213.95692767    -0.00004385  0.00168657  0.00278503  0.00080397  0.08732691  0.11962935  0.03453402     16.69
  29  -213.95692767  -213.95699870    -0.00007103  0.00346860  0.00475181  0.00137173  0.05771104  0.09849992  0.02843448     17.31
  30  -213.95699870  -213.95724406    -0.00024536  0.00434664  0.00603850  0.00174316  0.29594921  0.50000000  0.14433757     18.00
  31  -213.95724406  -213.95732741    -0.00008336  0.00477203  0.00875200  0.00252649  0.02865955  0.04997970  0.01442790     18.65
  32  -213.95732741  -213.95746953    -0.00014212  0.00269154  0.00564872  0.00163064  0.02593616  0.05500581  0.01587881     19.28
  33  -213.95746953  -213.95761402    -0.00014448  0.00478554  0.00823954  0.00237855  0.02652974  0.04720145  0.01362589     19.90
  34  -213.95761402  -213.95793094    -0.00031693  0.00252461  0.00516617  0.00149134  0.10685787  0.18710084  0.05401136     20.52
  35  -213.95793094  -213.95803491    -0.00010397  0.00184122  0.00336267  0.00097072  0.06859340  0.10404225  0.03003441     21.15
  36  -213.95803491  -213.95815151    -0.00011659  0.00173753  0.00337725  0.00097493  0.08026956  0.10652936  0.03075238     21.79
  37  -213.95815151  -213.95833889    -0.00018739  0.00194138  0.00330898  0.00095522  0.13601349  0.17215953  0.04969818     22.43
  38  -213.95833889  -213.95848039    -0.00014150  0.00240475  0.00395612  0.00114203  0.08748818  0.12516566  0.03613221     23.04
  39  -213.95848039  -213.95858531    -0.00010492  0.00231437  0.00410350  0.00118458  0.04687609  0.07594115  0.02192232     23.66
  40  -213.95858531  -213.95865047    -0.00006516  0.00140762  0.00254367  0.00073429  0.02253372  0.04376981  0.01263526     24.25
  41  -213.95865047  -213.95871285    -0.00006238  0.00076981  0.00158225  0.00045676  0.02883677  0.07230918  0.02087386     24.85
  42  -213.95871285  -213.95872910    -0.00001625  0.00085379  0.00176204  0.00050866  0.01747348  0.03646115  0.01052543     25.45
  43  -213.95872910  -213.95873536    -0.00000626  0.00052103  0.00108299  0.00031263  0.01163756  0.01980963  0.00571855     26.03
  44  -213.95873536  -213.95873922    -0.00000385  0.00041151  0.00063991  0.00018473  0.00996250  0.01534739  0.00443041     26.63
  45  -213.95873922  -213.95874212    -0.00000290  0.00034005  0.00066750  0.00019269  0.00836825  0.01271725  0.00367115     27.22
  46  -213.95874212  -213.95874287    -0.00000075  0.00025972  0.00051788  0.00014950  0.00393679  0.00826077  0.00238468     27.79

 END OF GEOMETRY OPTIMIZATION.

 Geometry written to block  1 of record 700

 Recomputing wavefunction for reoriented structure

 Current geometry (xyz format, in Angstrom)

    6
 HF-SCF000/6-311G(D,P)  ENERGY=-213.95874287
 O         -0.0000672141        0.5690846214       -0.8675606385
 C          0.0000811247       -0.4733035420       -1.4298018428
 F          0.0000050954       -0.0949680246        1.7626748319
 H          0.0004458714        0.3454436502        0.9715354739
 H         -0.0007706041       -1.4201695203       -0.8867099407
 H          0.0003294778       -0.5312814030       -2.5195985145

 **********************************************************************************************************************************


 **********************************************************************************************************************************
 DATASETS  * FILE   NREC   LENGTH (MB)   RECORD NAMES
              1      18       28.87       500      610      700      900      950      970     1000      129      960     1100   
                                          VAR    BASINP    GEOM    SYMINP    ZMAT    AOBASIS   BASIS     P2S    ABASIS      S 
                                         1400     1410     1200     1210     1080     1600     1650     1700   
                                           T        V       H0       H01     AOSYM     SMH    MOLCAS    OPER   

              2       4        0.55       700     1000      520     2100   
                                         GEOM     BASIS   MCVARS     RHF  

 PROGRAMS   *        TOTAL      OPTG    HF-SCF       INT
 CPU TIMES  *        29.02     28.25      0.10      0.43
 REAL TIME  *        33.72 SEC
 DISK USED  *        29.85 MB (local),      236.95 MB (total)
 SF USED    *         0.13 MB
 GA USED    *         0.00 MB       (max)       0.00 MB       (current)
 **********************************************************************************************************************************


 PROGRAM * HESSIAN

 PROGRAM * MCKINLEY (Hessian of the energy)     Author: A. Bernhardsson, R. Lindh

 Orbitals from record         2100.2

 Number of closed-shell orbitals: 13 ( 13 )
 Number of occupied orbitals:     13 ( 13 )

 Number of electrons= 26     Singlet     Space symmetry=1      Wavefunction type: CLOSED          


 McKinley needed      1.38 seconds of CPU time

 Entering CPHF calculation

 CPHF needed 152 iterations for 18 perturbations.  Total CPU time:    1.22 sec


 HF-SCF hessian saved to record  5300.2

 PROGRAM * FREQUENCIES (Calculation of harmonic vibrational spectra for HF-SCF)


 Permanent Dipole Moment [debye]
     1-   3    0.000000    0.000000    0.000000

 Dipole Moment Norm    0.0000000 [debye]

 Dipole Moment Derivatives [debye/ang]
              1             2             3             4             5             6             7             8
    1    0.00000000    0.00000000    0.00000000    0.00000000    0.00000000    0.00000000    0.00000000    0.00000000
    2    0.00000000    0.00000000    0.00000000    0.00000000    0.00000000    0.00000000    0.00000000    0.00000000
    3    0.00000000    0.00000000    0.00000000    0.00000000    0.00000000    0.00000000    0.00000000    0.00000000
              9            10            11            12            13            14            15            16
    1    0.00000000    0.00000000    0.00000000    0.00000000    0.00000000    0.00000000    0.00000000    0.00000000
    2    0.00000000    0.00000000    0.00000000    0.00000000    0.00000000    0.00000000    0.00000000    0.00000000
    3    0.00000000    0.00000000    0.00000000    0.00000000    0.00000000    0.00000000    0.00000000    0.00000000
             17            18
    1    0.00000000    0.00000000
    2    0.00000000    0.00000000
    3    0.00000000    0.00000000

 Projecting out rotations and translations

 Force Constants (Second Derivatives of the Energy) in [a.u.]
                             OX1         OY1         OZ1         CX2         CY2     
           OX1           0.0295167
           OY1          -0.0000768   0.8342396
           OZ1          -0.0000748   0.3916787   0.3209032
           CX2          -0.0725898   0.0000568   0.0000625   0.2186434
           CY2           0.0001180  -0.7693698  -0.3458991   0.0000967   1.0790636
           CZ2           0.0000576  -0.3453139  -0.3145031  -0.0002459   0.2137057
           FX3           0.0045262   0.0000062  -0.0000092  -0.0009682  -0.0000115
           FY3          -0.0000012   0.0057375   0.0061634   0.0000004  -0.0055157
           FZ3          -0.0000045  -0.0005795  -0.0215584   0.0000015   0.0070112
           HX4          -0.0087418  -0.0000025   0.0000075   0.0019623   0.0000010
           HY4           0.0000041  -0.0105390   0.0021003  -0.0000021   0.0053256
           HZ4           0.0000134   0.0076848   0.0092458  -0.0000054  -0.0137437
           HX5           0.0254039   0.0000042  -0.0000011  -0.0741387  -0.0001892
           HY5          -0.0000478  -0.0532622   0.0035829  -0.0001439  -0.2362882
           HZ5          -0.0000022  -0.0259763   0.0268790   0.0001037   0.1223011
           HX6           0.0218848   0.0000120   0.0000152  -0.0729089  -0.0000150
           HY6           0.0000037  -0.0068061  -0.0576260  -0.0000077  -0.0732155
           HZ6           0.0000106  -0.0274938  -0.0209665   0.0000837   0.0166248
                             CZ2         FX3         FY3         FZ3         HX4     
           CZ2           0.8052697
           FX3           0.0000176   0.0053478
           FY3           0.0008442   0.0001598   0.1650599
           FZ3           0.0032374  -0.0002862  -0.2886417   0.5296447
           HX4           0.0000014  -0.0083611  -0.0001615   0.0002894   0.0141660
           HY4          -0.0057631  -0.0001618  -0.1677392   0.2833877   0.0001634
           HZ4          -0.0075393   0.0002889   0.2811415  -0.5106105  -0.0002977
           HX5           0.0001188  -0.0000817   0.0000027  -0.0000016  -0.0008255
           HY5           0.1186687   0.0000041   0.0014471  -0.0002484  -0.0000004
           HZ5          -0.1623042  -0.0000053   0.0003537   0.0003515  -0.0000023
           HX6           0.0000506  -0.0004631  -0.0000002   0.0000015   0.0018000
           HY6           0.0178584   0.0000031   0.0010104  -0.0009292  -0.0000002
           HZ6          -0.3241605  -0.0000057   0.0001389  -0.0010647   0.0000017
                             HY4         HZ4         HX5         HY5         HZ5     
           HY4           0.1761263
           HZ4          -0.2788845   0.5066450
           HX5          -0.0000032   0.0000053   0.0257579
           HY5          -0.0019147   0.0018012   0.0001978   0.2858093
           HZ5          -0.0008149   0.0002004  -0.0001290  -0.1219687   0.1469450
           HX6          -0.0000004  -0.0000045   0.0238841  -0.0000098   0.0000351
           HY6          -0.0012591   0.0020006  -0.0000123   0.0042087   0.0261051
           HZ6          -0.0000254   0.0020586   0.0000076  -0.0018357  -0.0120717
                             HX6         HY6         HZ6     
           HX6           0.0258030
           HY6           0.0000135   0.0760615
           HZ6          -0.0000979   0.0125911   0.3562049


 Atomic Masses
     1-   6   15.994910   12.000000   18.998400    1.007825    1.007825    1.007825

 Mass weighted Second Derivative Matrix
                             OX1         OY1         OZ1         CX2         CY2     
           OX1           0.0018454
           OY1          -0.0000048   0.0521566
           OZ1          -0.0000047   0.0244877   0.0200628
           CX2          -0.0052396   0.0000041   0.0000045   0.0182203
           CY2           0.0000085  -0.0555333  -0.0249671   0.0000081   0.0899220
           CZ2           0.0000042  -0.0249248  -0.0227009  -0.0000205   0.0178088
           FX3           0.0002596   0.0000004  -0.0000005  -0.0000641  -0.0000008
           FY3          -0.0000001   0.0003291   0.0003536   0.0000000  -0.0003653
           FZ3          -0.0000003  -0.0000332  -0.0012367   0.0000001   0.0004643
           HX4          -0.0021773  -0.0000006   0.0000019   0.0005643   0.0000003
           HY4           0.0000010  -0.0026249   0.0005231  -0.0000006   0.0015314
           HZ4           0.0000033   0.0019140   0.0023028  -0.0000016  -0.0039520
           HX5           0.0063273   0.0000011  -0.0000003  -0.0213188  -0.0000544
           HY5          -0.0000119  -0.0132659   0.0008924  -0.0000414  -0.0679452
           HZ5          -0.0000006  -0.0064698   0.0066947   0.0000298   0.0351680
           HX6           0.0054508   0.0000030   0.0000038  -0.0209651  -0.0000043
           HY6           0.0000009  -0.0016952  -0.0143528  -0.0000022  -0.0210533
           HZ6           0.0000026  -0.0068478  -0.0052221   0.0000241   0.0047805
                             CZ2         FX3         FY3         FZ3         HX4     
           CZ2           0.0671058
           FX3           0.0000012   0.0002815
           FY3           0.0000559   0.0000084   0.0086881
           FZ3           0.0002144  -0.0000151  -0.0151929   0.0278784
           HX4           0.0000004  -0.0019108  -0.0000369   0.0000661   0.0140560
           HY4          -0.0016572  -0.0000370  -0.0383339   0.0647634   0.0001622
           HZ4          -0.0021680   0.0000660   0.0642501  -0.1166913  -0.0002954
           HX5           0.0000342  -0.0000187   0.0000006  -0.0000004  -0.0008191
           HY5           0.0341235   0.0000009   0.0003307  -0.0000568  -0.0000003
           HZ5          -0.0466709  -0.0000012   0.0000808   0.0000803  -0.0000023
           HX6           0.0000145  -0.0001058  -0.0000000   0.0000003   0.0017861
           HY6           0.0051352   0.0000007   0.0002309  -0.0002123  -0.0000002
           HZ6          -0.0932131  -0.0000013   0.0000317  -0.0002433   0.0000017
                             HY4         HZ4         HX5         HY5         HZ5     
           HY4           0.1747588
           HZ4          -0.2767192   0.5027112
           HX5          -0.0000031   0.0000053   0.0255580
           HY5          -0.0018999   0.0017872   0.0001962   0.2835902
           HZ5          -0.0008086   0.0001989  -0.0001280  -0.1210217   0.1458041
           HX6          -0.0000004  -0.0000044   0.0236987  -0.0000097   0.0000349
           HY6          -0.0012493   0.0019851  -0.0000122   0.0041760   0.0259024
           HZ6          -0.0000252   0.0020426   0.0000076  -0.0018215  -0.0119780
                             HX6         HY6         HZ6     
           HX6           0.0256027
           HY6           0.0000133   0.0754710
           HZ6          -0.0000972   0.0124934   0.3534392


 Mass Weighted 2nd Derivative Matrix Eigenvalues
     1-  10    0.000000    0.000000    0.000000    0.000000    0.000000    0.000000    0.000239    0.001689    0.001828    0.014989
    11-  18    0.017825    0.068886    0.071346    0.103268    0.148913    0.370758    0.391442    0.695970

 Mass Weighted 2nd Derivative Matrix Eigenvectors
              1             2             3             4             5             6             7             8
    1    0.96379493    0.03124066    0.01293668    0.01215747   -0.00628033    0.00533434    0.00000403   -0.15916160
    2   -0.00261354   -0.28050065    0.31561914    0.43808526   -0.18266578    0.14698324    0.33158750    0.00126876
    3   -0.01390821    0.30602347   -0.11147366    0.44962984    0.17092074    0.16580792   -0.12496095   -0.00292697
    4    0.08687592    0.03649421    0.07676684   -0.29681053    0.00247764    0.79378745    0.00002320    0.03773617
    5    0.00069865   -0.35509846    0.21871310    0.48850924   -0.10197235    0.17813301   -0.09541165   -0.00026575
    6   -0.01773637    0.47297329    0.00481037    0.18718343    0.04376792    0.04960243    0.59503626    0.00004127
    7    0.00150821   -0.03146514    0.59053296   -0.09192223    0.77356847   -0.09281274   -0.00003613    0.13439596
    8   -0.02103980    0.35437505    0.66588159   -0.16474863   -0.53004335   -0.13833024   -0.21315601   -0.00092608
    9   -0.01972183    0.50017165   -0.04023508    0.32789825    0.10269861    0.10534176   -0.47662699    0.00237507
   10    0.12755251   -0.00260870    0.08645014    0.00526653    0.11582990   -0.06003292    0.00003843   -0.15544730
   11   -0.00369047    0.03589125    0.13108453    0.00650789   -0.09913594   -0.01109223    0.09380665    0.00031616
   12   -0.00382828    0.08974640   -0.02169865    0.10028278    0.03639159    0.03580214   -0.03087234    0.00075906
   13   -0.20820906    0.00712466    0.08205502   -0.15545581    0.06567098    0.37839917    0.00023403   -0.64332804
   14   -0.00046625   -0.07151675    0.07865760    0.11109927   -0.04532125    0.03726289    0.08122523    0.00057041
   15   -0.00667197    0.19179382    0.02811771    0.00101043   -0.01470764   -0.01042953    0.36086801    0.00019628
   16    0.04978164    0.01668983   -0.01943537   -0.10248838   -0.06230432    0.30241464   -0.00021167    0.71911585
   17    0.00187541   -0.16589986    0.03267547    0.20283383    0.00204169    0.08016376   -0.24131002   -0.00100322
   18   -0.00522344    0.14042136    0.00301825    0.05098324    0.01098889    0.01287303    0.18397694    0.00025077
              9            10            11            12            13            14            15            16
    1   -0.00058653   -0.15268255    0.00040045    0.14524255    0.00012316    0.00000048    0.00007387   -0.00001299
    2   -0.27229673   -0.00032350   -0.11207888    0.00000981    0.13491237   -0.26313957   -0.53907476    0.00835605
    3    0.66961767    0.00033220    0.06332408    0.00009513   -0.24718371   -0.14402803   -0.29148378    0.00398627
    4    0.00012702    0.03811623   -0.00015731   -0.51395470   -0.00023576   -0.00008607   -0.00005748   -0.00006793
    5    0.04550553   -0.00000225   -0.01865781    0.00018579   -0.21278100    0.00810377    0.65430286   -0.18578080
    6    0.05309605   -0.00008948   -0.06859694   -0.00022943    0.38893309   -0.00145076    0.35870846   -0.10169933
    7    0.00059992   -0.12939751    0.00024123   -0.00003487    0.00001699   -0.00000144    0.00000491   -0.00000191
    8    0.19669968   -0.00004363   -0.08388999   -0.00000016   -0.00048564   -0.00026140    0.00161408   -0.00152143
    9   -0.58660652   -0.00047562   -0.09198853    0.00000082    0.00436457    0.00461106   -0.00411514    0.00299951
   10   -0.00098215    0.96697091   -0.00186364   -0.00061395    0.00001397   -0.00000084   -0.00002332    0.00001287
   11   -0.04208872    0.00141159    0.85335926    0.00000733   -0.01321137   -0.00501800   -0.01002293    0.00702482
   12   -0.18706327    0.00129830    0.47570308    0.00000238   -0.00783355   -0.00506412    0.00485612   -0.00769294
   13   -0.00275889   -0.06642064    0.00011744    0.59992435    0.00015789   -0.00003901    0.00005022    0.00049223
   14   -0.06599962   -0.00005843   -0.02916254   -0.00037831   -0.38952575    0.35685971    0.02836926    0.59027138
   15   -0.12458732   -0.00023445   -0.06454426    0.00023253   -0.45101830    0.57786387   -0.18394475   -0.36043662
   16    0.00303467    0.13799579   -0.00035367    0.59568880    0.00007726    0.00034119   -0.00014418   -0.00021066
   17    0.18182041    0.00013276    0.05091543   -0.00030850    0.60160873    0.66962749   -0.13553958    0.01708087
   18    0.00771359   -0.00001348   -0.02733506    0.00017422    0.08257110   -0.01403389    0.12040160    0.69015235
             17            18
    1    0.00000914    0.00000486
    2   -0.00223548    0.00530969
    3    0.00093700    0.00339792
    4    0.00019091   -0.00000243
    5    0.16041573   -0.00862797
    6   -0.29096282   -0.00264781
    7   -0.00000552    0.00011294
    8   -0.00033152    0.11038146
    9   -0.00066584   -0.19708986
   10    0.00000076   -0.00050673
   11    0.00303084   -0.48204537
   12    0.00295777    0.84639077
   13   -0.00048714    0.00001251
   14   -0.57684507    0.00732078
   15    0.33323398   -0.00089041
   16   -0.00018480   -0.00000709
   17    0.03062439    0.00409378
   18    0.66697060    0.00581671

   Low Vibration      Wavenumber
        Nr             [1/cm] 
        1                0.00
        2                0.00
        3                0.00
        4                0.00
        5                0.00
        6                0.00

     Vibration        Wavenumber
        Nr             [1/cm] 
        1               79.40
        2              211.27
        3              219.81
        4              629.34
        5              686.31
        6             1349.18
        7             1373.06
        8             1651.91
        9             1983.67
       10             3130.04
       11             3216.16
       12             4288.44

 FREQUENCIES * CALCULATION OF NORMAL MODES FOR HF-SCF


 Atomic Coordinates

  Nr  Atom  Charge       X              Y              Z

   1   O     8.00   -0.000127016    1.075414076   -1.639452003
   2   C     6.00    0.000153303   -0.894414068   -2.701933895
   3   F     9.00    0.000009629   -0.179463557    3.330972679
   4   H     1.00    0.000842575    0.652793890    1.835935966
   5   H     1.00   -0.001456231   -2.683731444   -1.675638940
   6   H     1.00    0.000622623   -1.003976347   -4.761351136

 Gradient norm at reference geometry: 0.78866D-03

 ?WARNING: GRADIENT NORM NOT ZERO!

 Normal Modes

                              1 A         2 A         3 A         4 A         5 A  
 Wavenumbers [cm-1]           79.40      211.27      219.81      629.34      686.31
 Intensities [km/mol]          0.00        0.00        0.00        0.00        0.00
 Intensities [relative]        0.00        0.00        0.00        0.00        0.00
           OX1              0.00000    -0.03980    -0.00015    -0.03818     0.00010
           OY1              0.08291     0.00032    -0.06809    -0.00008    -0.02802
           OZ1             -0.03125    -0.00073     0.16743     0.00008     0.01583
           CX2              0.00001     0.01089     0.00004     0.01100    -0.00005
           CY2             -0.02754    -0.00008     0.01314    -0.00000    -0.00539
           CZ2              0.17177     0.00001     0.01533    -0.00003    -0.01980
           FX3             -0.00001     0.03083     0.00014    -0.02969     0.00006
           FY3             -0.04890    -0.00021     0.04513    -0.00001    -0.01925
           FZ3             -0.10935     0.00054    -0.13458    -0.00011    -0.02110
           HX4              0.00004    -0.15484    -0.00098     0.96321    -0.00186
           HY4              0.09344     0.00031    -0.04193     0.00141     0.85004
           HZ4             -0.03075     0.00076    -0.18634     0.00129     0.47385
           HX5              0.00023    -0.64083    -0.00275    -0.06616     0.00012
           HY5              0.08091     0.00057    -0.06574    -0.00006    -0.02905
           HZ5              0.35946     0.00020    -0.12410    -0.00023    -0.06429
           HX6             -0.00021     0.71632     0.00302     0.13746    -0.00035
           HY6             -0.24037    -0.00100     0.18111     0.00013     0.05072
           HZ6              0.18326     0.00025     0.00768    -0.00001    -0.02723

                              6 A         7 A         8 A         9 A        10 A  
 Wavenumbers [cm-1]         1349.18     1373.06     1651.91     1983.67     3130.04
 Intensities [km/mol]          0.00        0.00        0.00        0.00        0.00
 Intensities [relative]        0.00        0.00        0.00        0.00        0.00
           OX1              0.03632     0.00003     0.00000     0.00002    -0.00000
           OY1              0.00000     0.03373    -0.06580    -0.13479     0.00209
           OZ1              0.00002    -0.06181    -0.03601    -0.07288     0.00100
           CX2             -0.14837    -0.00007    -0.00002    -0.00002    -0.00002
           CY2              0.00005    -0.06142     0.00234     0.18888    -0.05363
           CZ2             -0.00007     0.11228    -0.00042     0.10355    -0.02936
           FX3             -0.00001     0.00000    -0.00000     0.00000    -0.00000
           FY3             -0.00000    -0.00011    -0.00006     0.00037    -0.00035
           FZ3              0.00000     0.00100     0.00106    -0.00094     0.00069
           HX4             -0.00061     0.00001    -0.00000    -0.00002     0.00001
           HY4              0.00001    -0.01316    -0.00500    -0.00998     0.00700
           HZ4              0.00000    -0.00780    -0.00504     0.00484    -0.00766
           HX5              0.59759     0.00016    -0.00004     0.00005     0.00049
           HY5             -0.00038    -0.38801     0.35547     0.02826     0.58798
           HZ5              0.00023    -0.44926     0.57562    -0.18323    -0.35903
           HX6              0.59337     0.00008     0.00034    -0.00014    -0.00021
           HY6             -0.00031     0.59927     0.66702    -0.13501     0.01701
           HZ6              0.00017     0.08225    -0.01398     0.11993     0.68747

                             11 A        12 A  
 Wavenumbers [cm-1]         3216.16     4288.44
 Intensities [km/mol]          0.00        0.00
 Intensities [relative]        0.00        0.00
           OX1              0.00000     0.00000
           OY1             -0.00056     0.00133
           OZ1              0.00023     0.00085
           CX2              0.00006    -0.00000
           CY2              0.04631    -0.00249
           CZ2             -0.08399    -0.00076
           FX3             -0.00000     0.00003
           FY3             -0.00008     0.02532
           FZ3             -0.00015    -0.04522
           HX4              0.00000    -0.00050
           HY4              0.00302    -0.48017
           HZ4              0.00295     0.84310
           HX5             -0.00049     0.00001
           HY5             -0.57460     0.00729
           HZ5              0.33194    -0.00089
           HX6             -0.00018    -0.00001
           HY6              0.03051     0.00408
           HZ6              0.66438     0.00579


 Normal Modes of low/zero frequencies

                                  1           2           3           4           5
 Wavenumbers [cm-1]            0.00        0.00        0.00        0.00        0.00
 Intensities [km/mol]          0.00        0.00        0.00        0.00        0.00
 Intensities [relative]        0.00        0.00        0.00        0.00        0.00
           OX1              0.24099     0.00781     0.00323     0.00304    -0.00157
           OY1             -0.00065    -0.07014     0.07892     0.10954    -0.04567
           OZ1             -0.00348     0.07652    -0.02787     0.11243     0.04274
           CX2              0.02508     0.01053     0.02216    -0.08568     0.00072
           CY2              0.00020    -0.10251     0.06314     0.14102    -0.02944
           CZ2             -0.00512     0.13654     0.00139     0.05404     0.01263
           FX3              0.00035    -0.00722     0.13548    -0.02109     0.17748
           FY3             -0.00483     0.08130     0.15277    -0.03780    -0.12161
           FZ3             -0.00452     0.11475    -0.00923     0.07523     0.02356
           HX4              0.12706    -0.00260     0.08611     0.00525     0.11538
           HY4             -0.00368     0.03575     0.13057     0.00648    -0.09875
           HZ4             -0.00381     0.08940    -0.02161     0.09989     0.03625
           HX5             -0.20740     0.00710     0.08174    -0.15485     0.06542
           HY5             -0.00046    -0.07124     0.07835     0.11067    -0.04514
           HZ5             -0.00665     0.19105     0.02801     0.00101    -0.01465
           HX6              0.04959     0.01662    -0.01936    -0.10209    -0.06206
           HY6              0.00187    -0.16525     0.03255     0.20204     0.00203
           HZ6             -0.00520     0.13988     0.00301     0.05078     0.01095

                                  6
 Wavenumbers [cm-1]            0.00
 Intensities [km/mol]          0.00
 Intensities [relative]        0.00
           OX1              0.00133
           OY1              0.03675
           OZ1              0.04146
           CX2              0.22915
           CY2              0.05142
           CZ2              0.01432
           FX3             -0.02129
           FY3             -0.03174
           FZ3              0.02417
           HX4             -0.05980
           HY4             -0.01105
           HZ4              0.03566
           HX5              0.37693
           HY5              0.03712
           HZ5             -0.01039
           HX6              0.30124
           HY6              0.07985
           HZ6              0.01282


 Frequencies dumped to record   5400.2
 Frequency information read from record  5400.2

 Zero point energy:  0.04287189 [H]     9409.29 [1/CM]      112.56 [KJ/MOL]


 **********************************************************************************************************************************
 DATASETS  * FILE   NREC   LENGTH (MB)   RECORD NAMES
              1      18       28.87       500      610      700      900      950      970     1000      129      960     1100   
                                          VAR    BASINP    GEOM    SYMINP    ZMAT    AOBASIS   BASIS     P2S    ABASIS      S 
                                         1400     1410     1200     1210     1080     1600     1650     1700   
                                           T        V       H0       H01     AOSYM     SMH    MOLCAS    OPER   

              2       7        0.62       700     1000      520     2100     5300     5450     5400   
                                         GEOM     BASIS   MCVARS     RHF     HESS     NMOD     FREQ   

              4       5        1.48      4100     4000     4200     4300     4400   

 PROGRAMS   *        TOTAL      FREQ      OPTG    HF-SCF       INT
 CPU TIMES  *        31.64      2.62     28.25      0.10      0.43
 REAL TIME  *        36.45 SEC
 DISK USED  *        29.85 MB (local),      236.95 MB (total)
 SF USED    *         1.48 MB
 GA USED    *         0.00 MB       (max)       0.00 MB       (current)
 **********************************************************************************************************************************

 Dump information in style MOLDEN to aldehyd_hf.molden                                                               

 Molecular orbitals read from record     2100.2  Type=RHF/CANONICAL  
 Occupation numbers read from record     2100.2  Type=RHF/RHF  
 Orbital energies read from record       2100.2  Type=RHF/CANONICAL  
 Redundancy group numbers read from rec  2100.2  Type=RHF/RHF  

 DUMP ORBITAL  1.1 AS ORBITAL    1  occ=    2.0000  eig=  -26.2384  GROUP=   2
 DUMP ORBITAL  2.1 AS ORBITAL    2  occ=    2.0000  eig=  -20.6009  GROUP=   2
 DUMP ORBITAL  3.1 AS ORBITAL    3  occ=    2.0000  eig=  -11.3620  GROUP=   2
 DUMP ORBITAL  4.1 AS ORBITAL    4  occ=    2.0000  eig=   -1.5608  GROUP=   2
 DUMP ORBITAL  5.1 AS ORBITAL    5  occ=    2.0000  eig=   -1.4527  GROUP=   2
 DUMP ORBITAL  6.1 AS ORBITAL    6  occ=    2.0000  eig=   -0.8949  GROUP=   2
 DUMP ORBITAL  7.1 AS ORBITAL    7  occ=    2.0000  eig=   -0.7539  GROUP=   2
 DUMP ORBITAL  8.1 AS ORBITAL    8  occ=    2.0000  eig=   -0.7152  GROUP=   2
 DUMP ORBITAL  9.1 AS ORBITAL    9  occ=    2.0000  eig=   -0.6831  GROUP=   2
 DUMP ORBITAL 10.1 AS ORBITAL   10  occ=    2.0000  eig=   -0.6083  GROUP=   2
 DUMP ORBITAL 11.1 AS ORBITAL   11  occ=    2.0000  eig=   -0.6066  GROUP=   2
 DUMP ORBITAL 12.1 AS ORBITAL   12  occ=    2.0000  eig=   -0.5755  GROUP=   2
 DUMP ORBITAL 13.1 AS ORBITAL   13  occ=    2.0000  eig=   -0.4696  GROUP=   2

 Total charge:      26.000000
 Frequency information read from record  5400.2

 **********************************************************************************************************************************

 HF/6-311G(D,P)//HF/6-311G(D,P) energy=   -213.958742871858

    OPTG(HF-SCF)          HF-SCF
   -213.95874287   -213.81376548
 **********************************************************************************************************************************
 Molpro calculation terminated
