[Molden Format]
[Molpro variables]
_NUMVAR=  1076.000000000000    
_AVOGAD= 0.6022140760000000E+24
_BOLTZ= 0.1380649000000000E-22
_CLIGHTSI=  299792458.0000000    
_JOULE= 0.4359744722207100E-17
_JPCAL=  4.184000000000000    
_PLANCK= 0.6626070150000000E-33
_BOHR= 0.5291772109030000E-10
_ECHARG= 0.1602176634000000E-18
_ENULL= 0.8854187812800001E-11
_MU= 0.1660539066600000E-26
_EMASS= 0.9109383701500001E-30
_AMU2AU=  1822.888486217313    
_CLIGHT=  29979245800.00000    
_EV= 0.3674932217565494E-01
_KJOULE= 0.3808798847133432E-03
_KJOULE/MOL= 0.3808798847133432E-03
_CM= 0.4556335252912009E-05
_CM-1= 0.4556335252912009E-05
_DEB2SI= 0.3335640951981520E-29
_KCAL= 0.1593601437640628E-02
_KCAL/MOL= 0.1593601437640628E-02
_KELVIN= 0.3166811563455608E-05
_HERTZ= 0.1519829846057038E-15
_HZ= 0.1519829846057038E-15
_TOA= 0.5291772109030000    
_TOANG= 0.5291772109030000    
_TORAD= 0.1745329251994330E-01
_TOCM=  219474.6313631965    
_TODEBYE=  2.541746473194078    
_TOE= 0.4803204712570263E-09
_TOEV=  27.21138624598803    
_TOHERTZ=  6579683920501656.    
_TOHZ=  6579683920501656.    
_TOK=  315775.0248040668    
_TOKCAL=  627.5094740630558    
_TOKELVIN=  315775.0248040668    
_TOKJ=  2625.499639479825    
_TOKJOULE=  2625.499639479825    
_TOKG= 0.1660539066600000E-26
_ANG=  1.889726124625770    
_ANGSTROM=  1.889726124625770    
_RPAREF=  0.000000000000000    
_RPADISS=  0.000000000000000    
_IGNORE_UNDEF=  2.000000000000000    
_STRICTCHECK=  0.000000000000000    
!SEWARD=  0.000000000000000    
!MULTI=  0.000000000000000    
!DFMULTI=  0.000000000000000    
!NUMHESS=  0.000000000000000    
_SEW_ONEEL=  0.000000000000000    
_CPPDONE=FALSE
_DKROLL_DONE=  0.000000000000000    
_FNUC_DONE=  0.000000000000000    
_FOCKDONE=TRUE
_GRADONE=FALSE
_HESSDONE=TRUE
_INTDONE=TRUE
_SCFDONE=TRUE
_MODUL_BLOCK=FALSE
_MODUL_SLATER=TRUE
_MODUL_MRCC=FALSE
_MODUL_NBO6=FALSE
_MODUL_NECI=FALSE
_MODUL_AIMS=TRUE
_MODUL_HDF5=FALSE
_MODUL_GECCO=FALSE
_ISWINDOWS=FALSE
_MRCC_EXEC=
_FITC_AO_SAVED=FALSE
_FITC_MO_SAVED=FALSE
_LSTYP=SEWARD
_INTYP=INTS
_GEOMTYP=XYZ
_GRADTYP=ALASKA
_DIRECT=FALSE
_DKHO= -1.000000000000000    
_FNUC=  0.000000000000000    
_SYNCM=  0.000000000000000    
_BASIS=6-311G(D,P)
_ZCENTRE=MASS
_ZORIENT=  1.000000000000000    
_NELEC=  26.00000000000000    
!SPIN=  0.000000000000000    
_OPTCONV= 0.8260768913204337E-02
_QSDSTEP=  0.000000000000000    
_QSDIRC=  0.000000000000000    
_PROGRAM=FREQ
_CPUSTEP=  2.620000000000001    
_SYSSTEP= 0.1100000000000003    
_WALLSTEP=  2.730000000000000    
!DFSCF=  0.000000000000000    
!SCSGRD=  0.000000000000000    
_NCEN=  6.000000000000000    
_CPUTOT=  31.64000000000000    
_DFTEXFAC=  1.000000000000000    
_DMX= 0.3789998544159289E-03
_DMY=-0.6476522975435880    
_DMZ= -1.444366281178588    
_DMX_SCF= 0.3789998544159289E-03
_DMY_SCF=-0.6476522975435880    
_DMZ_SCF= -1.444366281178588    
_FREQUENCIES= 0.5716913299020980E-04
_HOMO=  13.10000000000000    
_EHOMO=-0.4695995196228865    
_LUMO=  14.10000000000000    
_ELUMO= 0.1083561468288714    
_ENERGY= -213.9587428718580    
_ENERGY_METHOD=HF
_ENERGY_BASIS=6-311G(D,P)
_GEOMETRY_METHOD=HF
_GEOMETRY_BASIS=6-311G(D,P)
_ENUC=  66.60794407646847    
_GRADENERG= -213.9587421198825    
_GRADEXFAC=  9999.000000000000    
_GRADMETHOD=  1.000000000000000    
_NMRMETHOD=  0.000000000000000    
_NMRMAGNET=  0.000000000000000    
_VIRIAL=-0.6170887310692835E-03
!GRID_FREEZE= -1.000000000000000    
!NEESE_INDEX=  0.000000000000000    
_ITERATIONS=  14.00000000000000    
_LASTNELEC=  26.00000000000000    
_LASTSPIN=  0.000000000000000    
_LASTSYM=  1.000000000000000    
_MPP_PROG=  1.000000000000000    
_MSNSTATES=  0.000000000000000    
_RS2PHASE=  0.000000000000000    
_NPROC_MPP=  6.000000000000000    
_NPROC_SMP=  6.000000000000000    
_NUMSTEP=  0.000000000000000    
_OPTCONVMX= 0.3936794964102599E-02
_OPTCONVRMS= 0.2384678577875908E-02
_OPTGRAD= 0.5178785109357512E-03
_OPTGRADMX= 0.2597172705247017E-03
_OPTGRADRMS= 0.1494986488481393E-03
!GMAXLAST= 0.2597172705247017E-03
!DMAXLAST= 0.3936794964102599E-02
!DELAST= 0.2901753475725855E-05
_OPTSTEP=  46.00000000000000    
_ORBITAL=  2100.200000000000    
_PI=  3.141592653589793    
_SEIG_MIN= 0.1221655355239560E-01
_SEWPROP=TRUE
_STATUS=  1.000000000000000    
_SYSTOT=  3.890000000000000    
_VERSION=  2024001.000000000    
_WALLTOT=  36.45000000000000    
_ZPE= 0.4287189088840072E-01
_DATE=14-Oct-24
_LASTORB=0
_OUTPUT=/home/lme/Theoretische_Chemie/Paper/Calc_Paper/aldehyd_hf.out
_PGROUP=C1
_TIME=08:28:06
_LIBMOL=/usr/local/molpro/molpro_2024.1.0_sockets/lib/
_VIGRDC=  0.000000000000000    
!VIBCNT=  0.000000000000000    
!SURFREC=  0.000000000000000    
!XSURFREC=  0.000000000000000    
!XPOLYREC=  0.000000000000000    
!ROTREC=  0.000000000000000    
!POLYREC=  0.000000000000000    
!DIPREC=  0.000000000000000    
!DIP4DREC=  0.000000000000000    
!DIPROT=  0.000000000000000    
!DIP4DROT=  0.000000000000000    
!PTREC=  0.000000000000000    
!PT4DREC=  0.000000000000000    
!VSCFREC=  0.000000000000000    
!VCIREC=  0.000000000000000    
!PVCIREC=  0.000000000000000    
!VMP2REC=  0.000000000000000    
!VMCSCFREC=  0.000000000000000    
!VMRCIREC=  0.000000000000000    
!VIBSTATEREC=  0.000000000000000    
!VIBSTATECNT=  0.000000000000000    
!VIBINFO=  0.000000000000000    
!GAREC=  0.000000000000000    
!SCFORB=  21002.00000000000    
!DEFCORE=  3.000000000000000    
!SCORE=  0.000000000000000    
!NEWMOL=  0.000000000000000    
!NEWSYM=  0.000000000000000    
_SLFILES=slscratch
_NGSSTO=  9.000000000000000    
_SIN=SIN
_COS=COS
_TAN=TAN
_ACOS=ACOS
_ASIN=ASIN
_ATAN=ATAN
_COSH=COSH
_SINH=SINH
_TANH=TANH
_ABS=ABS
_MOD=MOD
_ERF=ERF
_REFC=REFC
_ERFC=ERFC
_HYPOT=HYPOT
_J0=J0
_J1=J1
_JN=JN
_GAMMA=GAMMA
_LGAMMA=LGAMMA
_Y0=Y0
_Y1=Y1
_YN=YN
_EXP=EXP
_LOG=LOG
_LOG10=LOG10
_SQRT=SQRT
_INT=INT
_NINT=NINT
_MAX=MAX
_MIN=MIN
_COSMO=  0.000000000000000    
_COSMOIT=  0.000000000000000    
_COSMOES=  0.000000000000000    
_COSMOEDS=  0.000000000000000    
_COSMOEC=  0.000000000000000    
_COSMOEDCORR=  0.000000000000000    
_FEPSI=  1.000000000000000    
_SL_IsMM=  0.000000000000000    
_SL_NSYM=  1.000000000000000    
_SL_System_BitSw=  0.000000000000000    
_SL_Unique_atoms=  0.000000000000000    
_SL_GRAD=  0.000000000000000    
_SL_MAXUPD_Hess=  5.000000000000000    
_SL_N_PRINT_COD=  5.000000000000000    
_SL_PRINT_CODES=  0.000000000000000    
_SL_BasType=  0.000000000000000    
_SL_Energy_Pred=  0.000000000000000    
_SL_New_Coords=  0.000000000000000    
_SL_Total_Nuclea=  0.000000000000000    
_SL_Highest_Mltp=  0.000000000000000    
_SL_Ref_Geom=  0.000000000000000    
_SL_Symmetry_ope=  1.000000000000000    
_SL_agrad=  0.000000000000000    
_SL_GrdMax=  0.000000000000000    
_SL_GrdNorm=  0.000000000000000    
_SL_GrdRMS=  0.000000000000000    
_SL_Hss_Q=  0.000000000000000    
_SL_Hss_X=  0.000000000000000    
_SL_BMxOld=  0.000000000000000    
_SL_KtB=  0.000000000000000    
_SL_TROld=  0.000000000000000    
_SL_No_of_Intern=  0.000000000000000    
_SL_Hess=  0.000000000000000    
_SL_K=  0.000000000000000    
!LATTICE= -1.000000000000000    
!NEWLATTICE=  0.000000000000000    
!LATGRAD_VAR=FALSE
!SEW_LATTICE=  1.000000000000000    
!AIC_ONEEL=  0.000000000000000    
!LOCAL=  0.000000000000000    
!SAVEDOM= -1.000000000000000    
!RESTDOM= -1.000000000000000    
!SAVEDOM_HF= -1.000000000000000    
!RESTDOM_HF= -1.000000000000000    
!HESSREC=  5300.200000000000    
!FREQREC=  5400.200000000000    
!NMODREC=  5450.200000000000    
!GTASKS=  0.000000000000000    
!HTASKS=  0.000000000000000    
!SAVEDOM_EOM= -1.000000000000000    
!RESTDOM_EOM= -1.000000000000000    
!GRADSTATE= -1.000000000000000    
!DEBUG=  0.000000000000000    
!CFIT_CPHF=  0.000000000000000    
!RDOMAUX_CPHF=  0.000000000000000    
!THRAO_CPHF= 0.1000000000000000E-11
!THRMO_CPHF= 0.1000000000000000E-11
!THROV_CPHF= 0.1000000000000000E-13
!THRSW_CPHF= 0.1000000000000000E-11
!THRPROD_CPHF= 0.1000000000000000E-11
!THRAOPR_CPHF= 0.1000000000000000E-11
!CFIT_SCFGRD=  0.000000000000000    
!RDOMAUX_SCFGRD=  0.000000000000000    
!THRAO_SCFGRD= 0.1000000000000000E-11
!THRMO_SCFGRD= 0.1000000000000000E-11
!THROV_SCFGRD= 0.1000000000000000E-13
!THRSW_SCFGRD= 0.1000000000000000E-11
!THRPROD_SCFGRD= 0.1000000000000000E-11
!THRAOPR_SCFGRD= 0.1000000000000000E-11
!LOCFIT_SCF=  0.000000000000000    
!LOCFIT_MP2=  0.000000000000000    
_RIDOM=  0.000000000000000    
!CC2_METHOD=  0.000000000000000    
_BASIS2006=FALSE
_SVDDEL= -1.000000000000000    
_SVDDELA= -1.000000000000000    
_SVDDELP= -1.000000000000000    
_SVDDELF= -1.000000000000000    
_SVDDELS= -1.000000000000000    
_SVDDEL_ABS= -1.000000000000000    
_SVDDELA_ABS= -1.000000000000000    
_SVDDELP_ABS= -1.000000000000000    
_SVDDELF_ABS= -1.000000000000000    
_SVDDELS_ABS= -1.000000000000000    
_MAXBASIS=  0.000000000000000    
!OPT_CONICAL=  0.000000000000000    
!CLEARSP_JGRID=  0.000000000000000    
_GRDHYBR=  0.000000000000000    
_STATEGRAD=  1.000000000000000    
_4EXT_NDISKS=  1.000000000000000    
!EMBEDFLAG=  1.000000000000000    
!EMBED=FALSE
!EMBED_F12=FALSE
!EMBEDNUC=  0.000000000000000    
_EMBEDENERGY=  0.000000000000000    
!EMBED_DFC=FALSE
!NUM_VOIDS=  0.000000000000000    
_IBODY=  0.000000000000000    
_EMBE_CORR=  0.000000000000000    
!EMBED_PROJ=FALSE
!EMB_PROJ_ZMU=  1000000.000000000    
!CORRECTION_HF=  0.000000000000000    
!EMBED_AORB=  0.000000000000000    
!EMBED_NACORR=  0.000000000000000    
!EMBED_MP2=FALSE
!EMBED_TRUNC_PERTURBATION=FALSE
!EMBED_FROZEN=  0.000000000000000    
!EMBED_ACTIVE=  0.000000000000000    
_CHANGE_BASIS=FALSE
_RESTORE_BASIS=FALSE
_FIX_EMBED_GUESS=FALSE
_EMBED_SCF=FALSE
_NEOBAS=FALSE
_NEOOVE=FALSE
_PRINEO=FALSE
_HUZINAGA_T=FALSE
_HUZINAGA_F=FALSE
_HUZINAGA=FALSE
_HUZINAGA_CORRECT=FALSE
!FASTLATGRAD=  1.000000000000000    
!FASTVLAMBDA= -1.000000000000000    
!IFORCE= -1.000000000000000    
!USESYM= -1.000000000000000    
_SINDEX=  0.000000000000000    
_AVDOM_OSV=  0.000000000000000    
_AVDOM_PNO=  0.000000000000000    
_AVDOM_PNOCC=  0.000000000000000    
_AVDOM_TNO=  0.000000000000000    
_AVDOM_TNOIT=  0.000000000000000    
_AVDOM_PAO=  0.000000000000000    
_AVDOM_LMO=  0.000000000000000    
_CC2OSV_FLAG=  0.000000000000000    
_EOMCCSD_CONV=FALSE
_TMADC2_FLAG=FALSE
_PROPADC2_FLAG=FALSE
_LEN_VirQ=  0.000000000000000    
_GRDCC2LR_FLAG=FALSE
_GRDADC2_FLAG=FALSE
_RO_VGLOBAL=  0.000000000000000    
_OPT=FALSE
_FREQ=FALSE
_HESS=FALSE
_CMRCC_callName=EMPTY
_CMRCC_callCount=  0.000000000000000    
_GECCO_CIROOT=  1.000000000000000    
_SYM_CATION=  1.000000000000000    
_MON_A=FALSE
_MON_B=FALSE
_MAXGEOM=  100.0000000000000    
!MAXGEOM=  100.0000000000000    
_NCORE=  0.000000000000000    
_NLARGECORE=  0.000000000000000    
GX1=-0.6721406448303569E-04
GY1= 0.5690846214354475    
GZ1=-0.8675606384863338    
GX2= 0.8112465010098280E-04
GY2=-0.4733035420109545    
GZ2= -1.429801842807560    
GX3= 0.5095424312683526E-05
GY3=-0.9496802457812543E-01
GZ3=  1.762674831865016    
GX4= 0.4458713577226669E-03
GY4= 0.3454436502027805    
GZ4= 0.9715354738546362    
GX5=-0.7706040913387837E-03
GY5= -1.420169520278079    
GZ5=-0.8867099406649931    
GX6= 0.3294778050982413E-03
GY6=-0.5312814029805795    
GZ6= -2.519598514493099    
OX1=-0.1270161735958737E-03
OY1=  1.075414076249332    
OZ1= -1.639452003244638    
CX2= 0.1533033706469518E-03
CY2=-0.8944140682160115    
CZ2= -2.701933895391515    
FX3= 0.9628956439731369E-05
FY3=-0.1794635570493859    
FZ3=  3.330972678995658    
HX4= 0.8425747529108859E-03
HY4= 0.6527938903742805    
HZ4=  1.835935965943783    
HX5=-0.1456230683146403E-02
HY5= -2.683731443866733    
HZ5= -1.675638939840004    
HX6= 0.6226228157785043E-03
HY6= -1.003976346740233    
HZ6= -4.761351136405892    
[Atoms] Angs
O     1    8        -0.0000672141        0.5690846214       -0.8675606385
C     2    6         0.0000811247       -0.4733035420       -1.4298018428
F     3    9         0.0000050954       -0.0949680246        1.7626748319
H     4    1         0.0004458714        0.3454436502        0.9715354739
H     5    1        -0.0007706041       -1.4201695203       -0.8867099407
H     6    1         0.0003294778       -0.5312814030       -2.5195985145
[GTO]
   1 0
 s    6  1.00
  0.8588500000D+04  0.1895150083D-02
  0.1297230000D+04  0.1438590063D-01
  0.2992960000D+03  0.7073200310D-01
  0.8737710000D+02  0.2400010105D+00
  0.2567890000D+02  0.5947970261D+00
  0.3740040000D+01  0.2808020123D+00
 s    3  1.00
  0.4211750000D+02  0.1138890124D+00
  0.9628370000D+01  0.9208111006D+00
  0.2853320000D+01 -0.3274470358D-02
 s    1  1.00
  0.9056610000D+00  0.1000000000D+01
 s    1  1.00
  0.2556110000D+00  0.1000000000D+01
 p    3  1.00
  0.4211750000D+02  0.3651139738D-01
  0.9628370000D+01  0.2371529830D+00
  0.2853320000D+01  0.8197019412D+00
 p    1  1.00
  0.9056610000D+00  0.1000000000D+01
 p    1  1.00
  0.2556110000D+00  0.1000000000D+01
 d    1  1.00
  0.1292000000D+01  0.1000000000D+01
  
   2 0
 s    6  1.00
  0.4563240000D+04  0.1966650249D-02
  0.6820240000D+03  0.1523060193D-01
  0.1549730000D+03  0.7612690966D-01
  0.4445530000D+02  0.2608010331D+00
  0.1302900000D+02  0.6164620782D+00
  0.1827730000D+01  0.2210060280D+00
 s    3  1.00
  0.2096420000D+02  0.1146600807D+00
  0.4803310000D+01  0.9199996477D+00
  0.1459330000D+01 -0.3030682134D-02
 s    1  1.00
  0.4834560000D+00  0.1000000000D+01
 s    1  1.00
  0.1455850000D+00  0.1000000000D+01
 p    3  1.00
  0.2096420000D+02  0.4024869267D-01
  0.4803310000D+01  0.2375939567D+00
  0.1459330000D+01  0.8158538515D+00
 p    1  1.00
  0.4834560000D+00  0.1000000000D+01
 p    1  1.00
  0.1455850000D+00  0.1000000000D+01
 d    1  1.00
  0.6260000000D+00  0.1000000000D+01
  
   3 0
 s    6  1.00
  0.1142710000D+05  0.1800930156D-02
  0.1722350000D+04  0.1374190119D-01
  0.3957460000D+03  0.6813340591D-01
  0.1151390000D+03  0.2333250202D+00
  0.3360260000D+02  0.5890860511D+00
  0.4919010000D+01  0.2995050260D+00
 s    3  1.00
  0.5544410000D+02  0.1145360155D+00
  0.1263230000D+02  0.9205121249D+00
  0.3717560000D+01 -0.3378040458D-02
 s    1  1.00
  0.1165450000D+01  0.1000000000D+01
 s    1  1.00
  0.3218920000D+00  0.1000000000D+01
 p    3  1.00
  0.5544410000D+02  0.3546088738D-01
  0.1263230000D+02  0.2374509155D+00
  0.3717560000D+01  0.8204577080D+00
 p    1  1.00
  0.1165450000D+01  0.1000000000D+01
 p    1  1.00
  0.3218920000D+00  0.1000000000D+01
 d    1  1.00
  0.1750000000D+01  0.1000000000D+01
  
   4 0
 s    3  1.00
  0.3386500000D+02  0.2549381454D-01
  0.5094790000D+01  0.1903731086D+00
  0.1158790000D+01  0.8521614860D+00
 s    1  1.00
  0.3258400000D+00  0.1000000000D+01
 s    1  1.00
  0.1027410000D+00  0.1000000000D+01
 p    1  1.00
  0.7500000000D+00  0.1000000000D+01
  
   5 0
 s    3  1.00
  0.3386500000D+02  0.2549381454D-01
  0.5094790000D+01  0.1903731086D+00
  0.1158790000D+01  0.8521614860D+00
 s    1  1.00
  0.3258400000D+00  0.1000000000D+01
 s    1  1.00
  0.1027410000D+00  0.1000000000D+01
 p    1  1.00
  0.7500000000D+00  0.1000000000D+01
  
   6 0
 s    3  1.00
  0.3386500000D+02  0.2549381454D-01
  0.5094790000D+01  0.1903731086D+00
  0.1158790000D+01  0.8521614860D+00
 s    1  1.00
  0.3258400000D+00  0.1000000000D+01
 s    1  1.00
  0.1027410000D+00  0.1000000000D+01
 p    1  1.00
  0.7500000000D+00  0.1000000000D+01


[MO]
 Sym=      1.1
 Ene=     -26.2384
 Spin= Alpha
 Occup=    2.000000
1 0.000000057925187
2 -0.000001423158693
3 0.000008656853481
4 0.000027122791438
5 -0.000000003052638
6 -0.000003240795017
7 -0.000010239922986
8 0.000000010887755
9 0.000011801886036
10 0.000028610726409
11 -0.000000020048934
12 -0.000047313868937
13 -0.000113826440937
14 0.000000502753784
15 0.000002349119741
16 -0.000002851873525
17 0.000000001882074
18 -0.000000002277201
19 0.000005857846079
20 0.000000137471048
21 -0.000000496792979
22 -0.000002194075852
23 -0.000099614096293
24 -0.000000005634989
25 0.000003300235949
26 -0.000004075093829
27 0.000000016072081
28 -0.000018988200488
29 0.000016078414171
30 -0.000000015389050
31 -0.000062199637107
32 -0.000038836484453
33 0.000006687438282
34 -0.000006549467304
35 -0.000000137970978
36 0.000000007132640
37 -0.000000000901613
38 0.000002356202957
39 0.54764007128796
40 0.47350218427280
41 0.006157580117212
42 -0.000477965223769
43 0.000000586929727
44 0.000533939787880
45 -0.000974304465774
46 -0.000000178397061
47 -0.000161036519641
48 0.000302186815354
49 0.000000014251163
50 0.000006479818147
51 -0.000025849354786
52 0.000044109660424
53 0.000010369484221
54 -0.000054479144645
55 -0.000000039550208
56 0.000000065565964
57 0.000060688115225
58 0.000141922737583
59 0.000071301707773
60 0.000246684207838
61 -0.000000041521456
62 -0.000032784105967
63 0.000036165312444
64 0.000004595099999
65 -0.000011733649237
66 -0.000010061511067
67 -0.000000004265510
68 -0.000002119988179
69 0.000001379814382
70 0.000002488151918
71 0.000005174760291
72 -0.000006427156522
73 0.000000000695783
74 0.000006183582652
75 0.000003506137707
 Sym=      2.1
 Ene=     -20.6009
 Spin= Alpha
 Occup=    2.000000
1 0.55145083418965
2 0.47169031987739
3 0.005515459232234
4 -0.000837602211606
5 0.000000311435422
6 -0.001522675501500
7 -0.000658258742548
8 -0.000000100771232
9 0.000479614285620
10 0.000234705298309
11 -0.000000005493195
12 0.000068772671503
13 -0.000031134440291
14 -0.000211024277805
15 0.000088126781919
16 0.000122897495886
17 0.000000122643450
18 -0.000000206537189
19 -0.000035031893265
20 0.000005333352687
21 -0.000065804830403
22 0.000269597901452
23 0.000442170241215
24 -0.000000010196215
25 0.000089821607773
26 0.000041777444404
27 -0.000000009761381
28 0.000270364001994
29 0.000169596902311
30 -0.000000057718452
31 0.000220588028927
32 0.000133672600919
33 -0.000039734602392
34 0.000070338236386
35 -0.000030603633994
36 -0.000000031338928
37 0.000000015659404
38 0.000122194532421
39 0.000000277915764
40 -0.000004606960109
41 0.000044377047757
42 -0.000118675110631
43 -0.000000008201794
44 -0.000003644000275
45 0.000006600664728
46 0.000000027120362
47 0.000010617977820
48 -0.000017074974912
49 -0.000000032287056
50 -0.000024879277382
51 0.000066195291476
52 0.000000022734117
53 0.000003264169422
54 -0.000003286903539
55 0.000000007755749
56 -0.000000009519904
57 -0.000002876149146
58 -0.000024239554585
59 0.000145899254948
60 0.000040075370531
61 -0.000000040373003
62 0.000001608775509
63 -0.000046420103085
64 0.000008982238225
65 -0.000030894691044
66 -0.000011129623791
67 0.000000025163149
68 -0.000007987798062
69 -0.000026663829809
70 0.000007442911833
71 -0.000026981787318
72 0.000006444571483
73 0.000000000880692
74 -0.000020082075191
75 0.000007175319018
 Sym=      3.1
 Ene=     -11.3620
 Spin= Alpha
 Occup=    2.000000
1 -0.000225343424993
2 -0.000334723202839
3 0.000695105460055
4 -0.000512947743839
5 0.000000016863268
6 -0.000308803515192
7 -0.000163525444648
8 0.000000029262675
9 -0.000496204335140
10 -0.000274993744737
11 -0.000000068893056
12 0.000255379124193
13 0.000162087323146
14 -0.000045837555969
15 0.000138581856064
16 -0.000092744300095
17 -0.000000066401759
18 0.000000067269065
19 0.000196628990141
20 0.56338429522453
21 0.46663736900953
22 0.003922451701143
23 -0.000094520104788
24 0.000000539930142
25 0.000414729528839
26 0.000211998463031
27 -0.000000495120754
28 0.000115467831493
29 0.000078932029872
30 0.000000159593562
31 0.000268469846769
32 0.000158442630630
33 -0.000510404428020
34 0.000385701733307
35 0.000124702694712
36 0.000000197481892
37 -0.000000309197602
38 0.000211408246300
39 0.000000258427251
40 0.000001250399005
41 -0.000011195263460
42 0.000032390509431
43 0.000000002349716
44 0.000002206405214
45 0.000001659750493
46 -0.000000008990912
47 -0.000006747868738
48 -0.000003508959072
49 0.000000013834070
50 0.000019407129530
51 0.000012639785544
52 0.000000569128715
53 0.000001221362226
54 -0.000001790490942
55 -0.000000000614931
56 0.000000001725050
57 -0.000001343805262
58 -0.000008255526028
59 0.000015504304272
60 -0.000087498241211
61 0.000000010185892
62 -0.000006167472483
63 -0.000000568621177
64 0.000391122272159
65 -0.000077346076480
66 0.000236093080482
67 0.000000027373963
68 0.000027499855787
69 0.000023352771059
70 0.000387857361384
71 -0.000030086399818
72 0.000201818038120
73 0.000000029311280
74 0.000035165381546
75 0.000020993135119
 Sym=      4.1
 Ene=      -1.5608
 Spin= Alpha
 Occup=    2.000000
1 -0.005268793846200
2 -0.008697797129049
3 0.023462782757270
4 0.017348563779590
5 0.000000484013632
6 -0.002517449908783
7 0.001261621765622
8 -0.000000358459267
9 -0.004449749971171
10 -0.001178096495275
11 0.000001911929261
12 -0.000891369885407
13 0.009488209323026
14 -0.000567146628061
15 0.000589765825884
16 -0.000022619197823
17 -0.000000290512793
18 -0.000000098610025
19 0.000162050364452
20 -0.002560246641518
21 -0.004046148348863
22 0.010232771492129
23 0.003548221950638
24 -0.000000250803504
25 0.002961362151838
26 0.002337334486963
27 -0.000000936040661
28 0.004501307013229
29 0.001595999630312
30 0.000002953676147
31 0.005381327019367
32 -0.001091941827134
33 -0.000701985985263
34 0.000872592706500
35 -0.000170606721238
36 -0.000001039942229
37 0.000000326326338
38 0.000984069867475
39 -0.12090376254186
40 -0.20290288288513
41 0.59784514504718
42 0.43596884464658
43 0.000014560926944
44 0.014006447610229
45 -0.025997804469952
46 0.000024341818411
47 0.023608516630524
48 -0.044179341563474
49 0.000010567948870
50 0.008473615957097
51 -0.017126367638339
52 -0.003881234647651
53 -0.001160333263770
54 0.005041567911421
55 0.000003137189603
56 -0.000005724944057
57 -0.005607694362888
58 0.093459873279972
59 0.058358007502677
60 -0.011479423915195
61 -0.000013105671812
62 -0.015250991575246
63 0.028196736053537
64 0.000576656838646
65 0.003200806775399
66 0.004333936599073
67 0.000000766502446
68 0.000910801419988
69 0.000137622543842
70 0.000512752789636
71 -0.000386182841036
72 -0.000969249825120
73 -0.000000048210691
74 -0.000248959249990
75 -0.000114163061035
 Sym=      5.1
 Ene=      -1.4527
 Spin= Alpha
 Occup=    2.000000
1 -0.10596517891491
2 -0.17684054204659
3 0.49727692755355
4 0.35062041590492
5 0.000006994439070
6 -0.057724472812938
7 -0.029167064020611
8 0.000011011753073
9 -0.088462984059699
10 -0.044343043180284
11 0.000006436285280
12 -0.036560053260109
13 -0.010653445139330
14 -0.009499582532465
15 0.012036472764711
16 -0.002536890232246
17 -0.000003618162470
18 -0.000000945828803
19 0.012775360266717
20 -0.060586187405004
21 -0.097187497474466
22 0.24641176740190
23 0.037444042432171
24 -0.000011660785121
25 0.075950305324415
26 0.041531449375139
27 -0.000011919608601
28 0.10533906371921
29 0.056619167842657
30 0.000003442074499
31 -0.007101192773389
32 -0.007116539814319
33 -0.014260345616149
34 0.022187907557838
35 -0.007927561941689
36 -0.000008166810626
37 0.000000905952200
38 0.026433680001225
39 0.007232586914197
40 0.012185600019902
41 -0.036591743907260
42 -0.025530495512098
43 -0.000000541654275
44 -0.000336872011203
45 -0.000338152484149
46 -0.000001154813369
47 -0.000615729885041
48 -0.000250550526813
49 -0.000000170248076
50 -0.000000609602932
51 -0.001608611190609
52 0.000029458734589
53 -0.000061369752937
54 0.000031911018348
55 -0.000000134735264
56 0.000000228926848
57 0.000137829545358
58 -0.001028209541652
59 -0.001673034526185
60 -0.000162604713028
61 0.000001069915724
62 0.000952721740571
63 -0.002108632210726
64 0.016835496033773
65 0.021706909261264
66 -0.003854861634135
67 0.000003367599449
68 0.007160191945076
69 -0.000428786262750
70 0.016949296480951
71 0.019574346652826
72 -0.005318621880250
73 -0.000001083364289
74 0.003332036356413
75 0.005989898991519
 Sym=      6.1
 Ene=      -0.8949
 Spin= Alpha
 Occup=    2.000000
1 0.047371907278655
2 0.080065705339828
3 -0.23558045633793
4 -0.25610536227908
5 -0.000004103547851
6 -0.064623318991601
7 -0.040192301832985
8 -0.000008110849513
9 -0.097523850653411
10 -0.061625258919788
11 -0.000006744749221
12 -0.061114218926351
13 -0.044535411258905
14 -0.001961852481312
15 0.004781675712684
16 -0.002819823231372
17 0.000000568623962
18 0.000001272279965
19 0.005663907049376
20 -0.088186390205725
21 -0.14759958905976
22 0.40305368308270
23 0.25503912356495
24 -0.000024466959835
25 -0.065119751837783
26 -0.037559380413101
27 -0.000031284671729
28 -0.093066732783546
29 -0.052398766424246
30 -0.000011568269198
31 -0.056647419394201
32 -0.023795834421256
33 -0.010488742620408
34 0.000310860491895
35 0.010177882128513
36 0.000011399148041
37 -0.000013469001017
38 -0.009463009017146
39 -0.002676135451119
40 -0.004486090103715
41 0.012777485528412
42 0.022797502645776
43 -0.000003533791288
44 -0.006520474632146
45 0.009345248093307
46 -0.000005698753810
47 -0.009783581147652
48 0.014279158076462
49 -0.000001567950337
50 -0.006300327442912
51 0.007169721925343
52 0.000468744336978
53 0.000112242760459
54 -0.000580987097437
55 -0.000000370283700
56 0.000000614455165
57 0.000823552843177
58 -0.010768315124233
59 -0.019207036127339
60 -0.005320495054172
61 0.000001862991326
62 0.000427536422112
63 -0.000078761909073
64 0.10455648219658
65 0.14636643144613
66 0.001077403003707
67 0.000018831238944
68 0.017303329523674
69 -0.014138863562679
70 0.10605210247177
71 0.15529501629937
72 0.005503735549982
73 -0.000005713708364
74 -0.002120827745032
75 0.023103638098817
 Sym=      7.1
 Ene=      -0.7539
 Spin= Alpha
 Occup=    2.000000
1 0.001288773478046
2 0.002068873311372
3 -0.004660503666418
4 -0.033649050933732
5 0.000048459022817
6 0.011700199815627
7 -0.12255560706051
8 0.000076657050205
9 0.022879072014326
10 -0.18791227948485
11 0.000048107724299
12 0.021274226285649
13 -0.14976523080877
14 -0.001262376802855
15 -0.004858748770278
16 0.006121125573133
17 -0.000005022355593
18 -0.000005180806612
19 0.011974417622491
20 0.001755491349017
21 0.003039136419450
22 -0.002009638828530
23 -0.037260057711358
24 0.000052278804765
25 0.088994454908253
26 -0.070943836043161
27 0.000079975985447
28 0.13674120255040
29 -0.10632193877566
30 0.000033642434195
31 0.045012214298534
32 -0.059128418857398
33 0.000094028203660
34 0.010212767235529
35 -0.010306795439189
36 -0.000007073159217
37 0.000008507502725
38 0.003905212288107
39 -0.023648416653406
40 -0.040110224397064
41 0.12262060581416
42 0.19525910946103
43 -0.000076958647196
44 -0.081836587789049
45 0.16721769108660
46 -0.000114470049793
47 -0.12197580758851
48 0.24951213585801
49 -0.000078815287271
50 -0.085783318346891
51 0.18050362340276
52 0.006588286435092
53 0.002312432544760
54 -0.008900718979852
55 -0.000004914071783
56 0.000009176927595
57 0.009202143398489
58 -0.12518652785821
59 -0.17832542464486
60 -0.005931653305716
61 0.000015425503531
62 0.017538655549442
63 -0.026578244542457
64 -0.078190495725683
65 -0.11723989421775
66 -0.021278130554022
67 -0.000014423192000
68 -0.010900835409045
69 0.008036653672937
70 0.041350934249507
71 0.062534405791315
72 0.008344521829430
73 -0.000000061192496
74 0.002410649418432
75 0.008298633719650
 Sym=      8.1
 Ene=      -0.7152
 Spin= Alpha
 Occup=    2.000000
1 0.008813795602748
2 0.014946738635496
3 -0.047072807071936
4 -0.072523057892719
5 -0.000071557900336
6 -0.11813363327178
7 0.063978858764731
8 -0.000112678054119
9 -0.17927095376942
10 0.10414859309960
11 -0.000085988866751
12 -0.13194286229388
13 0.075538795692340
14 -0.004035201951618
15 0.016939967887548
16 -0.012904765935930
17 0.000006139577775
18 0.000005530627543
19 -0.003127683117551
20 -0.001392760837908
21 -0.002099677479627
22 0.012255586009631
23 -0.033524435816597
24 -0.000089233480597
25 -0.017583905796604
26 0.15301960338496
27 -0.000139270403604
28 -0.030753874116093
29 0.23630940027633
30 -0.000064994495272
31 -0.029533821895738
32 0.10242801511574
33 -0.001121424541859
34 0.004449373544104
35 -0.003327949002245
36 -0.000003825892926
37 -0.000008164153974
38 0.010002794909001
39 -0.014592969865760
40 -0.024715262662435
41 0.074798723079219
42 0.13896327514074
43 -0.000084204822814
44 -0.084837736613135
45 0.12341981256277
46 -0.000125412028187
47 -0.12651367560315
48 0.18353051728476
49 -0.000095373325783
50 -0.095721410475369
51 0.13233574703437
52 0.004863313080694
53 0.001002323415056
54 -0.005865636495750
55 -0.000004617261051
56 0.000007952763429
57 0.007672847490333
58 -0.092631177635602
59 -0.13689006080434
60 -0.008793354981896
61 0.000010247916025
62 0.011910490668325
63 -0.026405116725775
64 0.065949873620222
65 0.098716375780441
66 0.023856718647780
67 0.000009738548873
68 0.010475694008812
69 -0.003486905391551
70 -0.10819343549747
71 -0.16239314626175
72 -0.038055033611727
73 0.000000772534394
74 0.001295139529698
75 -0.016876340889358
 Sym=      9.1
 Ene=      -0.6831
 Spin= Alpha
 Occup=    2.000000
1 -0.034024529332431
2 -0.057615498497326
3 0.17371048572398
4 0.28707596477114
5 -0.000059613283928
6 0.18347913548880
7 0.11386778415683
8 -0.000091476550033
9 0.26848407675325
10 0.17036826284043
11 -0.000067621010854
12 0.19165671836436
13 0.12436968930336
14 0.010084306888352
15 -0.014194790810172
16 0.004110483921821
17 0.000010869136616
18 0.000005132268303
19 -0.016856251858753
20 0.008618478178727
21 0.014042643815784
22 -0.058393416979381
23 0.055731861334677
24 -0.000034220497328
25 -0.14773870503940
26 -0.053993327857987
27 -0.000055461109049
28 -0.23114875470157
29 -0.085370947324265
30 -0.000034600512249
31 -0.063122339216838
32 -0.032253290239139
33 0.004530980721263
34 -0.016217499186202
35 0.011686518464940
36 0.000007630962906
37 -0.000012354906353
38 -0.025423851387446
39 -0.008617409207333
40 -0.014742385282271
41 0.047444666485857
42 0.072485174354156
43 -0.000079960270637
44 -0.059328082909289
45 0.091371275263553
46 -0.000117265598537
47 -0.087943915901173
48 0.13579600427266
49 -0.000101759784661
50 -0.070264622565427
51 0.10386641814055
52 0.003406010615446
53 0.000818964402623
54 -0.004224975018068
55 -0.000003502332754
56 0.000006239555820
57 0.005200324084384
58 -0.061401760825672
59 -0.082404288980178
60 0.022125899093698
61 0.000003061718846