[Molden Format]
[Molpro variables]
_NUMVAR=  1073.000000000000    
_AVOGAD= 0.6022140760000000E+24
_BOLTZ= 0.1380649000000000E-22
_CLIGHTSI=  299792458.0000000    
_JOULE= 0.4359744722207100E-17
_JPCAL=  4.184000000000000    
_PLANCK= 0.6626070150000000E-33
_BOHR= 0.5291772109030000E-10
_ECHARG= 0.1602176634000000E-18
_ENULL= 0.8854187812800001E-11
_MU= 0.1660539066600000E-26
_EMASS= 0.9109383701500001E-30
_AMU2AU=  1822.888486217313    
_CLIGHT=  29979245800.00000    
_EV= 0.3674932217565494E-01
_KJOULE= 0.3808798847133432E-03
_KJOULE/MOL= 0.3808798847133432E-03
_CM= 0.4556335252912009E-05
_CM-1= 0.4556335252912009E-05
_DEB2SI= 0.3335640951981520E-29
_KCAL= 0.1593601437640628E-02
_KCAL/MOL= 0.1593601437640628E-02
_KELVIN= 0.3166811563455608E-05
_HERTZ= 0.1519829846057038E-15
_HZ= 0.1519829846057038E-15
_TOA= 0.5291772109030000    
_TOANG= 0.5291772109030000    
_TORAD= 0.1745329251994330E-01
_TOCM=  219474.6313631965    
_TODEBYE=  2.541746473194078    
_TOE= 0.4803204712570263E-09
_TOEV=  27.21138624598803    
_TOHERTZ=  6579683920501656.    
_TOHZ=  6579683920501656.    
_TOK=  315775.0248040668    
_TOKCAL=  627.5094740630558    
_TOKELVIN=  315775.0248040668    
_TOKJ=  2625.499639479825    
_TOKJOULE=  2625.499639479825    
_TOKG= 0.1660539066600000E-26
_ANG=  1.889726124625770    
_ANGSTROM=  1.889726124625770    
_RPAREF=  0.000000000000000    
_RPADISS=  0.000000000000000    
_IGNORE_UNDEF=  2.000000000000000    
_STRICTCHECK=  0.000000000000000    
!SEWARD=  0.000000000000000    
!MULTI=  0.000000000000000    
!DFMULTI=  0.000000000000000    
!NUMHESS=  0.000000000000000    
_SEW_ONEEL=  0.000000000000000    
_CPPDONE=FALSE
_DKROLL_DONE=  0.000000000000000    
_FNUC_DONE=  0.000000000000000    
_FOCKDONE=TRUE
_GRADONE=FALSE
_HESSDONE=TRUE
_INTDONE=TRUE
_SCFDONE=TRUE
_MODUL_BLOCK=FALSE
_MODUL_SLATER=TRUE
_MODUL_MRCC=FALSE
_MODUL_NBO6=FALSE
_MODUL_NECI=FALSE
_MODUL_AIMS=TRUE
_MODUL_HDF5=FALSE
_MODUL_GECCO=FALSE
_ISWINDOWS=FALSE
_MRCC_EXEC=
_FITC_AO_SAVED=FALSE
_FITC_MO_SAVED=FALSE
_LSTYP=SEWARD
_INTYP=INTS
_GEOMTYP=XYZ
_GRADTYP=ALASKA
_DIRECT=FALSE
_DKHO= -1.000000000000000    
_FNUC=  0.000000000000000    
_SYNCM=  0.000000000000000    
_BASIS=6-311G(D,P)
_ZCENTRE=MASS
_ZORIENT=  1.000000000000000    
_NELEC=  17.00000000000000    
!SPIN=  1.000000000000000    
_OPTCONV= 0.1209233920469610E-01
_QSDSTEP=  0.000000000000000    
_QSDIRC=  0.000000000000000    
_PROGRAM=FREQ
_CPUSTEP=  0.000000000000000    
_SYSSTEP=  0.000000000000000    
_WALLSTEP=  0.000000000000000    
!DFSCF=  0.000000000000000    
!SCSGRD=  0.000000000000000    
_NCEN=  5.000000000000000    
_CPUTOT=  19.72000000000000    
_CPUSORT= 0.5000000000000071E-01
_SYSSORT= 0.2000000000000002E-01
_WALLSORT= 0.8000000193715096E-01
_DFTEXFAC=  1.000000000000000    
_DMX= 0.6074258055370232    
_DMY= 0.5416909497459899E-01
_DMZ= 0.1592213362703356    
_DMX_SCF= 0.6074258055370232    
_DMY_SCF= 0.5416909497459899E-01
_DMZ_SCF= 0.1592213362703356    
_FREQUENCIES= 0.4898746551879562E-04
_HOMO=  9.100000000000000    
_EHOMO=-0.3521186078044525    
_LUMO=  10.10000000000000    
_ELUMO= 0.1550801615912016    
_ENERGY= -114.4449671233062    
_ENERGY_METHOD=HF
_ENERGY_BASIS=6-311G(D,P)
_GEOMETRY_METHOD=
_GEOMETRY_BASIS=
_ENUC=  35.62020922842456    
_FREQSTEP=  31.00000000000000    
_GRADENERG= -114.4449605152421    
_GRADEXFAC=  9999.000000000000    
_GRADMETHOD=  2.000000000000000    
_NMRMETHOD=  0.000000000000000    
_NMRMAGNET=  0.000000000000000    
_VIRIAL=-0.4678908068731469E-02
!GRID_FREEZE= -1.000000000000000    
!NEESE_INDEX=  0.000000000000000    
_ITERATIONS=  2.000000000000000    
_LASTNELEC=  17.00000000000000    
_LASTSPIN=  1.000000000000000    
_LASTSYM=  1.000000000000000    
_MSNSTATES=  0.000000000000000    
_RS2PHASE=  0.000000000000000    
_NPROC_MPP=  1.000000000000000    
_NPROC_SMP=  6.000000000000000    
_NUMSTEP=  0.000000000000000    
_OPTCONVMX= 0.8840174546226088E-02
_OPTCONVRMS= 0.4030779734898700E-02
_OPTGRAD= 0.1667163133594845E-03
_OPTGRADMX= 0.1041605862379344E-03
_OPTGRADRMS= 0.5557210445316150E-04
!GMAXLAST= 0.1041605862379344E-03
!DMAXLAST= 0.8840174546226088E-02
!DELAST= 0.1258687959193594E-05
_OPTSTEP=  5.000000000000000    
_ORBITAL=  2100.200000000000    
_PI=  3.141592653589793    
_SEIG_MIN= 0.1179892881094095E-01
_SEWPROP=TRUE
_STATUS=  1.000000000000000    
_SYSTOT=  2.110000000000000    
_VERSION=  2024002.000000000    
_WALLTOT=  21.93000000000000    
_ZPE= 0.4016945847897602E-01
_DATE=22-Nov-24
_LASTORB=0
_OUTPUT=/home/lme/Theoretische_Chemie/Nomodeco/ase_databank_integration/H2COH.molpro/run/H2COH_1.molpro/H2COH_1.out
_PGROUP=C1
_TIME=11:22:21
_LIBMOL=/usr/local/molpro/molpro_2024.2.2_sockets/lib/
_VIGRDC=  0.000000000000000    
!VIBCNT=  0.000000000000000    
!SURFREC=  0.000000000000000    
!XSURFREC=  0.000000000000000    
!XPOLYREC=  0.000000000000000    
!ROTREC=  0.000000000000000    
!POLYREC=  0.000000000000000    
!DIPREC=  0.000000000000000    
!DIP4DREC=  0.000000000000000    
!DIPROT=  0.000000000000000    
!DIP4DROT=  0.000000000000000    
!PTREC=  0.000000000000000    
!PT4DREC=  0.000000000000000    
!VSCFREC=  0.000000000000000    
!VCIREC=  0.000000000000000    
!PVCIREC=  0.000000000000000    
!VMP2REC=  0.000000000000000    
!VMCSCFREC=  0.000000000000000    
!VMRCIREC=  0.000000000000000    
!VIBSTATEREC=  0.000000000000000    
!VIBSTATECNT=  0.000000000000000    
!VIBINFO=  0.000000000000000    
!GAREC=  0.000000000000000    
!SCFORB=  21002.00000000000    
!DEFCORE=  2.000000000000000    
!SCORE=  0.000000000000000    
!NEWMOL=  0.000000000000000    
!NEWSYM=  0.000000000000000    
_SLFILES=slscratch
_NGSSTO=  9.000000000000000    
_SIN=SIN
_COS=COS
_TAN=TAN
_ACOS=ACOS
_ASIN=ASIN
_ATAN=ATAN
_COSH=COSH
_SINH=SINH
_TANH=TANH
_ABS=ABS
_MOD=MOD
_ERF=ERF
_REFC=REFC
_ERFC=ERFC
_HYPOT=HYPOT
_J0=J0
_J1=J1
_JN=JN
_GAMMA=GAMMA
_LGAMMA=LGAMMA
_Y0=Y0
_Y1=Y1
_YN=YN
_EXP=EXP
_LOG=LOG
_LOG10=LOG10
_SQRT=SQRT
_INT=INT
_NINT=NINT
_MAX=MAX
_MIN=MIN
_COSMO=  0.000000000000000    
_COSMOIT=  0.000000000000000    
_COSMOES=  0.000000000000000    
_COSMOEDS=  0.000000000000000    
_COSMOEC=  0.000000000000000    
_COSMOEDCORR=  0.000000000000000    
_FEPSI=  1.000000000000000    
_SL_IsMM=  0.000000000000000    
_SL_NSYM=  1.000000000000000    
_SL_System_BitSw=  0.000000000000000    
_SL_Unique_atoms=  0.000000000000000    
_SL_GRAD=  0.000000000000000    
_SL_MAXUPD_Hess=  5.000000000000000    
_SL_N_PRINT_COD=  5.000000000000000    
_SL_PRINT_CODES=  0.000000000000000    
_SL_BasType=  0.000000000000000    
_SL_Energy_Pred=  0.000000000000000    
_SL_New_Coords=  0.000000000000000    
_SL_Total_Nuclea=  0.000000000000000    
_SL_Highest_Mltp=  0.000000000000000    
_SL_Ref_Geom=  0.000000000000000    
_SL_Symmetry_ope=  1.000000000000000    
_SL_agrad=  0.000000000000000    
_SL_GrdMax=  0.000000000000000    
_SL_GrdNorm=  0.000000000000000    
_SL_GrdRMS=  0.000000000000000    
_SL_Hss_Q=  0.000000000000000    
_SL_Hss_X=  0.000000000000000    
_SL_BMxOld=  0.000000000000000    
_SL_KtB=  0.000000000000000    
_SL_TROld=  0.000000000000000    
_SL_No_of_Intern=  0.000000000000000    
_SL_Hess=  0.000000000000000    
_SL_K=  0.000000000000000    
!LATTICE= -1.000000000000000    
!NEWLATTICE=  0.000000000000000    
!LATGRAD_VAR=FALSE
!SEW_LATTICE=  1.000000000000000    
!AIC_ONEEL=  0.000000000000000    
!LOCAL=  0.000000000000000    
!SAVEDOM= -1.000000000000000    
!RESTDOM= -1.000000000000000    
!SAVEDOM_HF= -1.000000000000000    
!RESTDOM_HF= -1.000000000000000    
!HESSREC=  5300.200000000000    
!FREQREC=  5400.200000000000    
!NMODREC=  5450.200000000000    
!GTASKS=  0.000000000000000    
!HTASKS=  0.000000000000000    
!SAVEDOM_EOM= -1.000000000000000    
!RESTDOM_EOM= -1.000000000000000    
!GRADSTATE= -1.000000000000000    
!DEBUG=  0.000000000000000    
!CFIT_CPHF=  0.000000000000000    
!RDOMAUX_CPHF=  0.000000000000000    
!THRAO_CPHF= 0.1000000000000000E-11
!THRMO_CPHF= 0.1000000000000000E-11
!THROV_CPHF= 0.1000000000000000E-13
!THRSW_CPHF= 0.1000000000000000E-11
!THRPROD_CPHF= 0.1000000000000000E-11
!THRAOPR_CPHF= 0.1000000000000000E-11
!CFIT_SCFGRD=  0.000000000000000    
!RDOMAUX_SCFGRD=  0.000000000000000    
!THRAO_SCFGRD= 0.1000000000000000E-11
!THRMO_SCFGRD= 0.1000000000000000E-11
!THROV_SCFGRD= 0.1000000000000000E-13
!THRSW_SCFGRD= 0.1000000000000000E-11
!THRPROD_SCFGRD= 0.1000000000000000E-11
!THRAOPR_SCFGRD= 0.1000000000000000E-11
!LOCFIT_SCF=  0.000000000000000    
!LOCFIT_MP2=  0.000000000000000    
_RIDOM=  0.000000000000000    
!CC2_METHOD=  0.000000000000000    
_BASIS2006=FALSE
_SVDDEL= -1.000000000000000    
_SVDDELA= -1.000000000000000    
_SVDDELP= -1.000000000000000    
_SVDDELF= -1.000000000000000    
_SVDDELS= -1.000000000000000    
_SVDDEL_ABS= -1.000000000000000    
_SVDDELA_ABS= -1.000000000000000    
_SVDDELP_ABS= -1.000000000000000    
_SVDDELF_ABS= -1.000000000000000    
_SVDDELS_ABS= -1.000000000000000    
_MAXBASIS=  0.000000000000000    
!OPT_CONICAL=  0.000000000000000    
!CLEARSP_JGRID=  0.000000000000000    
_GRDHYBR=  0.000000000000000    
_STATEGRAD=  1.000000000000000    
_4EXT_NDISKS=  1.000000000000000    
!EMBEDFLAG=  1.000000000000000    
!EMBED=FALSE
!EMBED_F12=FALSE
!EMBEDNUC=  0.000000000000000    
_EMBEDENERGY=  0.000000000000000    
!EMBED_DFC=FALSE
!NUM_VOIDS=  0.000000000000000    
_IBODY=  0.000000000000000    
_EMBE_CORR=  0.000000000000000    
!EMBED_PROJ=FALSE
!EMB_PROJ_ZMU=  1000000.000000000    
!CORRECTION_HF=  0.000000000000000    
!EMBED_AORB=  0.000000000000000    
!EMBED_NACORR=  0.000000000000000    
!EMBED_MP2=FALSE
!EMBED_TRUNC_PERTURBATION=FALSE
!EMBED_FROZEN=  0.000000000000000    
!EMBED_ACTIVE=  0.000000000000000    
_CHANGE_BASIS=FALSE
_RESTORE_BASIS=FALSE
_FIX_EMBED_GUESS=FALSE
_EMBED_SCF=FALSE
_NEOBAS=FALSE
_NEOOVE=FALSE
_PRINEO=FALSE
_HUZINAGA_T=FALSE
_HUZINAGA_F=FALSE
_HUZINAGA=FALSE
_HUZINAGA_CORRECT=FALSE
!FASTLATGRAD=  1.000000000000000    
!FASTVLAMBDA= -1.000000000000000    
!IFORCE= -1.000000000000000    
!USESYM= -1.000000000000000    
_SINDEX=  0.000000000000000    
_AVDOM_OSV=  0.000000000000000    
_AVDOM_PNO=  0.000000000000000    
_AVDOM_PNOCC=  0.000000000000000    
_AVDOM_TNO=  0.000000000000000    
_AVDOM_TNOIT=  0.000000000000000    
_AVDOM_PAO=  0.000000000000000    
_AVDOM_LMO=  0.000000000000000    
_CC2OSV_FLAG=  0.000000000000000    
_EOMCCSD_CONV=FALSE
_TMADC2_FLAG=FALSE
_PROPADC2_FLAG=FALSE
_LEN_VirQ=  0.000000000000000    
_GRDCC2LR_FLAG=FALSE
_GRDADC2_FLAG=FALSE
_RO_VGLOBAL=  0.000000000000000    
_OPT=FALSE
_FREQ=FALSE
_HESS=FALSE
_CMRCC_callName=EMPTY
_CMRCC_callCount=  0.000000000000000    
_GECCO_CIROOT=  1.000000000000000    
_SYM_CATION=  1.000000000000000    
_MON_A=FALSE
_MON_B=FALSE
_MAXGEOM=  100.0000000000000    
!MAXGEOM=  100.0000000000000    
_NCORE=  0.000000000000000    
_NLARGECORE=  0.000000000000000    
GX1= 0.1881797179092120E-01
GY1=-0.5489741697182541E-01
GZ1= 0.7228456671388304    
GX2=-0.6375615684061393E-01
GY2= 0.2091243110430794E-01
GZ2=-0.6293138705538496    
GX3= 0.7793262152185295    
GY3=-0.1344474073304729    
GZ3= -1.014589601135479    
GX4= 0.9248433470146362    
GY4= 0.3021343296319797    
GZ4=  1.187851835149676    
GX5=-0.9163757199287478    
GY5= 0.1540718654516237    
GZ5=  1.207603209484935    
CX1= 0.3556081290577458E-01
CY1=-0.1037410830261326    
CZ1=  1.365980341264791    
OX2=-0.1204816751874462    
OY2= 0.3951876738724726E-01
OZ2= -1.189230861774970    
HX3=  1.472713108504181    
HY3=-0.2540687780205969    
HZ3= -1.917296475039355    
HX4=  1.747700634039895    
HY4= 0.5709511358518461    
HZ4=  2.244714645067006    
HX5= -1.731699137922103    
HY5= 0.2911536292137599    
HZ5=  2.282039333145608    
[Atoms] Angs
C     1    6         0.0188179718       -0.0548974170        0.7228456671
O     2    8        -0.0637561568        0.0209124311       -0.6293138706
H     3    1         0.7793262152       -0.1344474073       -1.0145896011
H     4    1         0.9248433470        0.3021343296        1.1878518351
H     5    1        -0.9163757199        0.1540718655        1.2076032095
[GTO]
   1 0
 s    6  1.00
  0.4563240000D+04  0.1966650249D-02
  0.6820240000D+03  0.1523060193D-01
  0.1549730000D+03  0.7612690966D-01
  0.4445530000D+02  0.2608010331D+00
  0.1302900000D+02  0.6164620782D+00
  0.1827730000D+01  0.2210060280D+00
 s    3  1.00
  0.2096420000D+02  0.1146600807D+00
  0.4803310000D+01  0.9199996477D+00
  0.1459330000D+01 -0.3030682134D-02
 s    1  1.00
  0.4834560000D+00  0.1000000000D+01
 s    1  1.00
  0.1455850000D+00  0.1000000000D+01
 p    3  1.00
  0.2096420000D+02  0.4024869267D-01
  0.4803310000D+01  0.2375939567D+00
  0.1459330000D+01  0.8158538515D+00
 p    1  1.00
  0.4834560000D+00  0.1000000000D+01
 p    1  1.00
  0.1455850000D+00  0.1000000000D+01
 d    1  1.00
  0.6260000000D+00  0.1000000000D+01
  
   2 0
 s    6  1.00
  0.8588500000D+04  0.1895150083D-02
  0.1297230000D+04  0.1438590063D-01
  0.2992960000D+03  0.7073200310D-01
  0.8737710000D+02  0.2400010105D+00
  0.2567890000D+02  0.5947970261D+00
  0.3740040000D+01  0.2808020123D+00
 s    3  1.00
  0.4211750000D+02  0.1138890124D+00
  0.9628370000D+01  0.9208111006D+00
  0.2853320000D+01 -0.3274470358D-02
 s    1  1.00
  0.9056610000D+00  0.1000000000D+01
 s    1  1.00
  0.2556110000D+00  0.1000000000D+01
 p    3  1.00
  0.4211750000D+02  0.3651139738D-01
  0.9628370000D+01  0.2371529830D+00
  0.2853320000D+01  0.8197019412D+00
 p    1  1.00
  0.9056610000D+00  0.1000000000D+01
 p    1  1.00
  0.2556110000D+00  0.1000000000D+01
 d    1  1.00
  0.1292000000D+01  0.1000000000D+01
  
   3 0
 s    3  1.00
  0.3386500000D+02  0.2549381454D-01
  0.5094790000D+01  0.1903731086D+00
  0.1158790000D+01  0.8521614860D+00
 s    1  1.00
  0.3258400000D+00  0.1000000000D+01
 s    1  1.00
  0.1027410000D+00  0.1000000000D+01
 p    1  1.00
  0.7500000000D+00  0.1000000000D+01
  
   4 0
 s    3  1.00
  0.3386500000D+02  0.2549381454D-01
  0.5094790000D+01  0.1903731086D+00
  0.1158790000D+01  0.8521614860D+00
 s    1  1.00
  0.3258400000D+00  0.1000000000D+01
 s    1  1.00
  0.1027410000D+00  0.1000000000D+01
 p    1  1.00
  0.7500000000D+00  0.1000000000D+01
  
   5 0
 s    3  1.00
  0.3386500000D+02  0.2549381454D-01
  0.5094790000D+01  0.1903731086D+00
  0.1158790000D+01  0.8521614860D+00
 s    1  1.00
  0.3258400000D+00  0.1000000000D+01
 s    1  1.00
  0.1027410000D+00  0.1000000000D+01
 p    1  1.00
  0.7500000000D+00  0.1000000000D+01


[MO]
 Sym=      1.1
 Ene=     -20.5675
 Spin= Alpha
 Occup=    2.000000
1 -0.000003272481548
2 -0.000037191060967
3 0.000136221679568
4 0.000432541536213
5 -0.000015214340009
6 0.000000942557154
7 -0.000040592386915
8 0.000020108791505
9 -0.000003054908677
10 -0.000262638103956
11 -0.000173194423840
12 0.000031809860013
13 -0.000205737551526
14 -0.000075239003356
15 -0.000055735123128
16 0.000130974126484
17 -0.000003068672406
18 -0.000034160312633
19 -0.000012469915066
20 0.55143653478373
21 0.47166421547129
22 0.005660223626049
23 -0.000823955760399
24 0.001465153724877
25 -0.000311788988267
26 0.000901973109146
27 -0.000536677418813
28 0.000115580234656
29 -0.000316311223605
30 0.000140684484729
31 -0.000012904575151
32 -0.000169946716759
33 0.000006191393013
34 0.000099969455923
35 -0.000106160848936
36 0.000031474295635
37 0.000037754461997
38 0.000007177804498
39 0.000210100111255
40 0.000065615534097
41 0.000078392457931
42 -0.000032168413079
43 0.000003269699765
44 0.000082195035279
45 0.000005569423747
46 0.000020710794954
47 0.000013058430480
48 -0.000015837977704
49 -0.000022897618570
50 0.000018778950710
51 0.000018583488961
52 -0.000112226807389
53 -0.000047842510689
54 0.000007602049539
55 -0.000000737963314
56 0.000003094439547
 Sym=      2.1
 Ene=     -11.2651
 Spin= Alpha
 Occup=    2.000000
1 0.56343732031247
2 0.46664606537407
3 0.003905608371329
4 -0.000608693217744
5 -0.000008603423187
6 0.000484463711777
7 -0.001171580595308
8 -0.000040403149222
9 0.000183644484792
10 0.000818545679536
11 -0.000006394671587
12 0.000133310940375
13 -0.000240880421111
14 0.000332303086949
15 -0.000173730120795
16 -0.000158572966154
17 0.000027859567668
18 -0.000034967268036
19 0.000102742992130
20 -0.000090146225972
21 -0.000164643302028
22 0.000438982337399
23 0.000112281253201
24 0.000018661573176
25 -0.000051570353377
26 0.000149655703962
27 0.000018253253110
28 -0.000078814887771
29 0.000602569924063
30 0.000049637862229
31 -0.000088989958893
32 0.000019637463449
33 -0.000127473289142
34 -0.000085569914778
35 0.000213043203919
36 -0.000000380210129
37 0.000052626410787
38 -0.000007100737935
39 0.000013128565739
40 -0.000024694018633
41 -0.000057254220151
42 -0.000037335003550
43 -0.000004526667115
44 0.000010618682528
45 0.000354697913255
46 -0.000167131281229
47 0.000320601414862
48 0.000081551899508
49 0.000070601705749
50 0.000018191471604
51 0.000347354762088
52 -0.000202439091294
53 0.000318592263559
54 -0.000104143884913
55 0.000058296633262
56 0.000029994742761
 Sym=      3.1
 Ene=      -1.3908
 Spin= Alpha
 Occup=    2.000000
1 -0.037475443655042
2 -0.061270313802833
3 0.15132995256887
4 0.022012455606475
5 -0.000949024656468
6 0.005499032096187
7 -0.047168158795321
8 -0.000050756736258
9 0.004960536940398
10 -0.086439974036899
11 0.004707361487363
12 0.000109179231535
13 0.006002464970513
14 -0.017349153427148
15 -0.011988609161554
16 0.029337762588703
17 -0.000426143083274
18 0.000533726431945
19 -0.003746427196791
20 -0.11041972134246
21 -0.18450276433845
22 0.52459172826389
23 0.37706437371693
24 0.028797011696645
25 -0.006597506240711
26 0.022353018352322
27 0.048521089725381
28 -0.011165869671190
29 0.039884247166275
30 0.015504537227039
31 -0.003528044616081
32 0.024443752046533
33 0.002037702864411
34 -0.008055490236564
35 0.006017787372153
36 -0.002232946826117
37 -0.001743544851589
38 -0.000056269902333
39 0.090634129388966
40 0.075270472985264
41 -0.003887617744953
42 -0.023029924158650
43 0.004130754382317
44 0.013904677958293
45 0.014308001147491
46 0.022548962138438
47 -0.003605979948852
48 -0.005804682260676
49 -0.001753393694292
50 -0.005415385565114
51 0.013790608859646
52 0.024815229857200
53 -0.002202227716454
54 0.006013878954526
55 -0.000929838151892
56 -0.005436889283117
 Sym=      4.1
 Ene=      -0.8918
 Spin= Alpha
 Occup=    2.000000
1 -0.091050299314560
2 -0.15187885027236
3 0.40042523549320
4 0.24620909467376
5 -0.012584459631763
6 0.030061241549541
7 0.012009196990420
8 -0.019254016391216
9 0.043540938833331
10 -0.002605269064829
11 0.002309172241601
12 0.025850593545967
13 0.017507126682076
14 0.004477983536172
15 -0.012555407886611
16 0.008077424350438
17 0.000633812107779
18 0.003881503717201
19 0.000750387959680
20 0.026628318843503
21 0.044784211176384
22 -0.12900908881487
23 -0.13048203668960
24 -0.048455366099417
25 0.008128008789443
26 0.11590953834271
27 -0.077162777075226
28 0.013918173637293
29 0.18269029749815
30 -0.033765862360375
31 0.001300242155175
32 0.10152749262710
33 -0.012985633880095
34 -0.001380073178027
35 0.014365707058122
36 0.002634976332404
37 0.008549052269003
38 -0.001003231026060
39 -0.093998919968714
40 -0.11343760682965
41 -0.018822931907195
42 0.020153027204946
43 -0.003831602650809
44 -0.003128154617223
45 0.085381335114611
46 0.11910645829569
47 0.003658786084789
48 -0.017130179029750
49 -0.004278889846403
50 -0.008065413342505
51 0.094461586454021
52 0.13560772091992
53 0.007009132580774
54 0.019714589550546
55 -0.002615246111302
56 -0.008559816246145
 Sym=      5.1
 Ene=      -0.7101
 Spin= Alpha
 Occup=    2.000000
1 -0.023616980077530
2 -0.039102846875897
3 0.098870387897401
4 0.095093906978746
5 0.091975738695825
6 0.021180557451358
7 0.085782173099764
8 0.14566290424108
9 0.031830051002065
10 0.13819051496660
11 0.078570266001539
12 0.020495714099892
13 0.046939126658325
14 0.019056506809594
15 0.003909761503745
16 -0.022966268313339
17 0.010537567004488
18 -0.012323159958499
19 0.007687770246664
20 0.024319052370034
21 0.041419395513022
22 -0.12704726176760
23 -0.17493500967018
24 0.16494305372928
25 -0.007797489268894
26 -0.077721163326344
27 0.25372764158423
28 -0.010415106294349
29 -0.12228199897791
30 0.17309107875665
31 -0.007771011768474
32 -0.064046437784095
33 0.017478362329447
34 -0.005002874619329
35 -0.012475487710118
36 -0.003945480263586
37 0.000432609408174
38 0.002871525815063
39 0.12274106280354
40 0.18293264221246
41 0.030114168501948
42 -0.019673573312465
43 0.006191725949820
44 0.014605887403035
45 0.11602734552090
46 0.16693762579142
47 0.040635523612632
48 -0.014605546685437
49 -0.006607150702091
50 -0.004719198530967
51 0.000571961413725
52 0.010284704026289
53 0.000619758376400
54 0.002386341043802
55 0.002092569512140
56 0.002665717735139
 Sym=      6.1
 Ene=      -0.6205
 Spin= Alpha
 Occup=    2.000000
1 0.005428413123423
2 0.008483144112139
3 -0.018329082390308
4 -0.052036576634800
5 0.10379955688827
6 -0.013280640347691
7 -0.13064986915268
8 0.16410519089588
9 -0.021574625635737
10 -0.22021026205853
11 0.11261738782608
12 -0.017882732829254
13 -0.091006891051432
14 -0.028926066026562
15 -0.008158826123878
16 0.037084892150441
17 0.009154321693126
18 0.004747296002261
19 -0.006995359180812
20 0.013743158000636
21 0.023310259657294
22 -0.070794535379338
23 -0.10853894003369
24 0.070918248047720
25 -0.014106516140412
26 0.17197979505939
27 0.10894438654984
28 -0.021959504204702
29 0.26500894922475
30 0.094886210229617
31 -0.017176522368692
32 0.20811445371622
33 -0.003888247147301
34 -0.006251618514247
35 0.010139865661548
36 -0.000920098017360
37 0.017688067209197
38 -0.003986755797489
39 -0.026871241176613
40 -0.027943744181511
41 -0.036427841261117
42 0.010113121074074
43 -0.001993328279289
44 0.017617088443672
45 0.013313720976958
46 0.016181570261539
47 0.004554929338959
48 0.000858419631130
49 -0.002533881682711
50 -0.007366237853315
51 -0.13320520733116
52 -0.18584030960920
53 -0.057294671020070
54 -0.014078684842709
55 0.003346888412400
56 0.001955127763579
 Sym=      7.1
 Ene=      -0.5611
 Spin= Alpha
 Occup=    2.000000
1 0.010738694610523
2 0.018220976748668
3 -0.051297837629717
4 -0.022693023901719
5 0.055839644768403
6 0.063481730432940
7 0.008914794709508
8 0.084037016598709
9 0.10186804654861
10 0.018063652318521
11 0.032557425967399
12 0.066430965554502
13 -0.005950284031514
14 0.001777863244877
15 0.005523379337009
16 -0.007301242581886
17 0.005204025587282
18 0.010719988213599
19 -0.028982725350966
20 -0.014427330435764
21 -0.024563601728305
22 0.074495759120569
23 0.11969797542285
24 -0.041670037373733
25 0.25401344564364
26 -0.020764647123320
27 -0.061218244883046
28 0.39022248371955
29 -0.030021096393804
30 -0.040967055155642
31 0.37794943968378
32 -0.042251451810694
33 -0.001174681749001
34 -0.000165639239641
35 0.001340320988642
36 0.013166679034951
37 0.001716273227693
38 0.012259098995088
39 -0.045267327845408
40 -0.085081591796335
41 -0.013532978294647
42 0.011136302676063
43 0.024244661597424
44 -0.009878361226091
45 0.046753632907050
46 0.073153255077705
47 0.037373581701883
48 -0.004896835319324
49 -0.000216030821988
50 -0.003068348017848
51 -0.043147366001274
52 -0.086031979226808
53 -0.027617898364781
54 -0.004169714366020
55 0.005266935660218
56 0.005486881928649
 Sym=      8.1
 Ene=      -0.5079
 Spin= Alpha
 Occup=    2.000000
1 -0.001160351422023
2 -0.002149398749529
3 0.008171899305644
4 -0.022669668941176
5 -0.12756615411968
6 0.012272678876116
7 -0.034729598572373
8 -0.19300579740522
9 0.018467978829485
10 -0.061264346034523
11 -0.088177214669356
12 0.018365271282432
13 -0.006015822611786
14 -0.007563702712723
15 -0.002558834338037
16 0.010122537050760
17 -0.011971690912940
18 -0.033047386647463
19 -0.016054913457329
20 0.019903035576791
21 0.033873953224565
22 -0.10297696703956
23 -0.17820659516234
24 0.16868106704419
25 0.10186323578409
26 0.072574792117293
27 0.25300010754491
28 0.15620248509953
29 0.10854763707802
30 0.23347430076482
31 0.16697537418169
32 0.12546666760082
33 0.009131126308365
34 -0.009773420892729
35 0.000642294584364
36 0.002222448445851
37 0.000696328603601
38 0.003725873665009
39 0.069513263065120
40 0.13186463174592
41 0.021837380392786
42 -0.005708141204530
43 0.015414261571993
44 0.017087423540140
45 -0.11600633577711
46 -0.21477715990630
47 -0.095992257418229
48 0.008418382874812
49 0.007435863218439
50 0.007528394987457
51 0.092164881689493
52 0.17633568351865
53 0.059561743309975
54 0.009045269535555
55 -0.003008696160905
56 -0.011346241491749
 Sym=      9.1
 Ene=      -0.3521
 Spin= Alpha
 Occup=    1.000000
1 0.028005650868361
2 0.048773284325721
3 -0.14310320916347
4 -0.29785028457668
5 -0.020974830369930
6 0.25235868480350
7 -0.028144499693327
8 -0.036049121234260
9 0.42350910446151
10 -0.048288810483023
11 -0.050775237452791
12 0.45265641052186
13 -0.043091829936839
14 0.005497581694544
15 -0.015736600708430
16 0.010239019013885
17 0.004602877227560
18 0.001037756073978
19 0.017172447536859
20 -0.002055125470908
21 -0.003508393194124
22 0.010107514367378
23 0.013269244724054
24 -0.000390857146832
25 -0.10951704665346
26 0.020839884799033
27 -0.001376691895764
28 -0.15342975892060
29 0.030856540694718
30 -0.002191586203407
31 -0.26169668099869
32 0.046406973692586
33 -0.000112829044002
34 -0.000794304509021
35 0.000907133553023
36 -0.004454042201617
37 -0.000851743563047
38 0.009826656228875
39 0.011064702714505
40 0.026635591141962
41 0.001697754805510
42 -0.003465014575000
43 -0.011192512729040
44 0.002524418140292
45 0.030389844525561
46 0.093597339206324
47 0.056224472280147
48 -0.007968846303611
49 0.017765427963808
50 -0.004336891922927
51 0.024394491479079
52 0.065939185699400
53 0.030477983231310
54 0.004236944239691
55 0.018189755317605
56 -0.003253342547694
 Sym=     10.1
 Ene=       0.1551
 Spin= Alpha
 Occup=    0.000000
1 0.020024434670545
2 0.031697353380711
3 -0.021506014905212
4 -1.14563811443271
5 -0.034271149819852
6 -0.015971559000475
7 -0.055123961785469
8 -0.020438702558128
9 -0.013940372053944
10 -0.055473645877698
11 -0.30706221819149
12 -0.16718975491013
13 -0.16116244168630
14 0.003491095734653
15 0.009365561974133
16 -0.012856657708787
17 -0.001360811507283
18 0.009882041647699
19 -0.001517257807705
20 0.023659437618682
21 0.039220817207139
22 -0.093153974165677
23 -0.47651358412167
24 -0.056539036809179
25 0.015789603349288
26 0.037389904110211
27 -0.082358214119902
28 0.018428489150174
29 0.030528960213925
30 -0.13406450270390
31 0.058338393012924
32 0.22196254413528
33 -0.002127436259846
34 -0.001003412888302
35 0.003130849148148
36 0.001353707228092
37 -0.002343359662899
38 -0.001033954669760
39 0.039856224729415
40 -0.11772954635650
41 1.19609129228516
42 0.012114019658365
43 -0.001252493133416
44 -0.011164282571851
45 0.002774073782103
46 -0.032598339048364
47 1.01356119346046
48 0.011175874609043
49 0.003701954361654
50 -0.006950622394232
51 0.003104865873284
52 -0.009308434968884
53 0.27208548682873
54 0.001268695062959
55 0.000587090972094
56 -0.008820076958047
 Sym=     11.1
 Ene=       0.1878
 Spin= Alpha
 Occup=    0.000000
1 0.040352000578720
2 0.065653736806607
3 -0.096547520492385
4 -1.48507972746258
5 0.024532973163132
6 -0.037158909759198
7 -0.030518003784042
8 0.011082443537064
9 -0.035758315697011
10 0.009347096773854
11 0.27891220064207
12 -0.25648889084767
13 -0.32394947251492
14 0.007243721645521
15 -0.010649989821354
16 0.003406268175833
17 0.003743876937550
18 -0.004903307448404
19 0.003135501403626
20 -0.018106167738513
21 -0.030137539349932
22 0.065531198645521
23 0.43838464624816
24 0.041665011785791
25 -0.001505156371481
26 0.006174504653931
27 0.061057868338996
28 -0.005284727158868
29 0.028710218611625
30 0.12899925556791
31 0.005683090399206
32 -0.006251510428060
33 0.004568426373011
34 -0.000976666686353
35 -0.003591759686658
36 -0.000839867710815
37 0.003399893682555
38 -0.002678402901314
39 -0.029418717123483
40 0.051054224953927
41 -0.94446290785946
42 0.001408231807455
43 0.001211505588365
44 0.008066076543065
45 0.020388813228099
46 -0.10378856460731
47 0.97577287348356
48 0.005481321067956
49 0.001907283087955
50 0.010599347163532
51 0.020587036392923
52 -0.069075449551024
53 1.48185603550015
54 -0.011346440408937
55 0.000937032081973
56 0.010294568676263
 Sym=     12.1
 Ene=       0.2277
 Spin= Alpha
 Occup=    0.000000
1 -0.002936999961759
2 -0.005059952516199
3 0.008007045634161
4 0.060148752464270
5 0.13219248395988
6 0.017383213619141
7 -0.018212692760644
8 0.060202552173997
9 0.017516896459094
10 -0.028163482196227
11 1.08683304908562
12 0.10721571937897
13 -0.12615974865354
14 0.003286293994463
15 0.001506183113644
16 -0.004792477108107
17 -0.015537930869308
18 -0.029583475434487
19 -0.002313350292169
20 0.010983287124846
21 0.018257642249083
22 -0.040451655451871
23 -0.28421732817229
24 -0.030738867763532
25 0.000862078587922
26 -0.004626911694318
27 -0.032415230651085
28 0.003841273147004
29 -0.011386406930379
30 -0.17466211410870
31 -0.005643188406787
32 -0.007847852132363
33 -0.001946292526830
34 0.001736008617820
35 0.000210283909010
36 -0.000905206799163
37 0.007732650524191
38 0.000891980802034
39 0.001446385189746
40 -0.058309488330906
41 0.45470537256291
42 -0.000847733574082
43 -0.002838893715234
44 -0.001894177041734
45 -0.009805184367571
46 0.18729216209629
47 -1.90955026432135
48 -0.028072667347498
49 -0.012513456272858
50 -0.016694263263246
51 0.004379776417172
52 -0.16978063144604
53 1.83381992660207
54 -0.031921347571764
55 0.009937106422518
56 0.010056053352281
 Sym=     13.1
 Ene=       0.3627
 Spin= Alpha
 Occup=    0.000000
1 0.017352797589377
2 0.029398339353296
3 -0.015431680676335
4 -1.04692244598546
5 0.011906036810097
6 0.016746058963309
7 0.078816575992030
8 0.006831849342603
9 0.049333374583571
10 0.085951875592517
11 0.14249853306804
12 0.008444553921159
13 1.95333015036877
14 -0.007742598947745
15 -0.006507628134602
16 0.014250227082348
17 -0.001396033175351
18 0.004087327062990
19 0.001073046760723
20 -0.027780381913484
21 -0.045447527468564
22 0.069441523559539