 Entering Gaussian System, Link 0=g16
 Input=f2_scan.com
 Output=f2_scan.log
 Initial command:
 /usr/local/g16/l1.exe "/scratch/praktikum/Gau-20494.inp" -scrdir="/scratch/praktikum/"
 Entering Link 1 = /usr/local/g16/l1.exe PID=     20496.
  
 Copyright (c) 1988,1990,1992,1993,1995,1998,2003,2009,2016,
            Gaussian, Inc.  All Rights Reserved.
  
 This is part of the Gaussian(R) 16 program.  It is based on
 the Gaussian(R) 09 system (copyright 2009, Gaussian, Inc.),
 the Gaussian(R) 03 system (copyright 2003, Gaussian, Inc.),
 the Gaussian(R) 98 system (copyright 1998, Gaussian, Inc.),
 the Gaussian(R) 94 system (copyright 1995, Gaussian, Inc.),
 the Gaussian 92(TM) system (copyright 1992, Gaussian, Inc.),
 the Gaussian 90(TM) system (copyright 1990, Gaussian, Inc.),
 the Gaussian 88(TM) system (copyright 1988, Gaussian, Inc.),
 the Gaussian 86(TM) system (copyright 1986, Carnegie Mellon
 University), and the Gaussian 82(TM) system (copyright 1983,
 Carnegie Mellon University). Gaussian is a federally registered
 trademark of Gaussian, Inc.
  
 This software contains proprietary and confidential information,
 including trade secrets, belonging to Gaussian, Inc.
  
 This software is provided under written license and may be
 used, copied, transmitted, or stored only in accord with that
 written license.
  
 The following legend is applicable only to US Government
 contracts under FAR:
  
                    RESTRICTED RIGHTS LEGEND
  
 Use, reproduction and disclosure by the US Government is
 subject to restrictions as set forth in subparagraphs (a)
 and (c) of the Commercial Computer Software - Restricted
 Rights clause in FAR 52.227-19.
  
 Gaussian, Inc.
 340 Quinnipiac St., Bldg. 40, Wallingford CT 06492
  
  
 ---------------------------------------------------------------
 Warning -- This program may not be used in any manner that
 competes with the business of Gaussian, Inc. or will provide
 assistance to any competitor of Gaussian, Inc.  The licensee
 of this program is prohibited from giving any competitor of
 Gaussian, Inc. access to this program.  By using this program,
 the user acknowledges that Gaussian, Inc. is engaged in the
 business of creating and licensing software in the field of
 computational chemistry and represents and warrants to the
 licensee that it is not a competitor of Gaussian, Inc. and that
 it will not use this program in any manner prohibited above.
 ---------------------------------------------------------------
  

 Cite this work as:
 Gaussian 16, Revision A.03,
 M. J. Frisch, G. W. Trucks, H. B. Schlegel, G. E. Scuseria, 
 M. A. Robb, J. R. Cheeseman, G. Scalmani, V. Barone, 
 G. A. Petersson, H. Nakatsuji, X. Li, M. Caricato, A. V. Marenich, 
 J. Bloino, B. G. Janesko, R. Gomperts, B. Mennucci, H. P. Hratchian, 
 J. V. Ortiz, A. F. Izmaylov, J. L. Sonnenberg, D. Williams-Young, 
 F. Ding, F. Lipparini, F. Egidi, J. Goings, B. Peng, A. Petrone, 
 T. Henderson, D. Ranasinghe, V. G. Zakrzewski, J. Gao, N. Rega, 
 G. Zheng, W. Liang, M. Hada, M. Ehara, K. Toyota, R. Fukuda, 
 J. Hasegawa, M. Ishida, T. Nakajima, Y. Honda, O. Kitao, H. Nakai, 
 T. Vreven, K. Throssell, J. A. Montgomery, Jr., J. E. Peralta, 
 F. Ogliaro, M. J. Bearpark, J. J. Heyd, E. N. Brothers, K. N. Kudin, 
 V. N. Staroverov, T. A. Keith, R. Kobayashi, J. Normand, 
 K. Raghavachari, A. P. Rendell, J. C. Burant, S. S. Iyengar, 
 J. Tomasi, M. Cossi, J. M. Millam, M. Klene, C. Adamo, R. Cammi, 
 J. W. Ochterski, R. L. Martin, K. Morokuma, O. Farkas, 
 J. B. Foresman, and D. J. Fox, Gaussian, Inc., Wallingford CT, 2016.
 
 ******************************************
 Gaussian 16:  AS64L-G16RevA.03 25-Dec-2016
                 4-Nov-2024 
 ******************************************
 %chk=f2_freq.chk
 ----------------------------------------------------------------------
 # B3LYP/6-311++G(3df,3pd) SCAN SCF=VERYTIGHT INT=ULTRAFINE # GEOM=NOCR
 OWD NOSYMM POP=ALWAYS
 ----------------------------------------------------------------------
 1/38=1,60=1,172=1/1,8;
 2/12=1,15=1,17=6,18=5,29=3,40=1/2;
 3/5=4,6=6,7=1616,11=2,25=1,30=1,74=-5,75=-5/1,2,3;
 4//1;
 5/5=2,17=3,38=5/2;
 6/7=2,8=2,9=2,10=2,18=1,28=1/1;
 1/60=1/8(1);
 99/9=1/99;
 2/12=1,15=1,29=3/2;
 3/5=4,6=6,7=1616,11=2,25=1,30=1,74=-5,75=-5/1,2,3;
 4/5=5,16=3,69=1/1;
 5/5=2,17=3,38=5/2;
 6/7=2,8=2,9=2,10=2,18=1,28=1/1;
 1/60=1/8(-5);
 99/9=1/99;
 ------------
 F2 Bond Scan
 ------------
 Symbolic Z-matrix:
 Charge =  0 Multiplicity = 1
 F
 F                    1    B1
       Variables:
  B1                    0.89426Scan 150   0.01   
 
 Scan the potential surface.
 Variable   Value     No. Steps Step-Size
 -------- ----------- --------- ---------
     1       0.894258     150      0.0100
 A total of    151 points will be computed.
 ---------------------------------------------------------------------------------------------------
                            Z-MATRIX (ANGSTROMS AND DEGREES)
   CD    Cent   Atom    N1       Length/X        N2       Alpha/Y        N3        Beta/Z          J
 ---------------------------------------------------------------------------------------------------
      1      1  F 
      2      2  F        1   0.894258(     1)
 ---------------------------------------------------------------------------------------------------
                         Z-Matrix orientation:                         
 ---------------------------------------------------------------------
 Center     Atomic      Atomic             Coordinates (Angstroms)
 Number     Number       Type             X           Y           Z
 ---------------------------------------------------------------------
      1          9           0        0.000000    0.000000    0.000000
      2          9           0        0.000000    0.000000    0.894258
 ---------------------------------------------------------------------
 Symmetry turned off by external request.
 Stoichiometry    F2
 Framework group  D*H[C*(F.F)]
 Deg. of freedom     1
 Full point group                 D*H     NOp   8
 Rotational constants (GHZ):           0.0000000          66.5280070          66.5280070
 Standard basis: 6-311++G(3df,3pd) (5D, 7F)
    78 basis functions,   116 primitive gaussians,    90 cartesian basis functions
     9 alpha electrons        9 beta electrons
       nuclear repulsion energy        47.9317583945 Hartrees.
 NAtoms=    2 NActive=    2 NUniq=    2 SFac= 1.00D+00 NAtFMM=   60 NAOKFM=F Big=F
 Integral buffers will be    131072 words long.
 Raffenetti 2 integral format.
 Two-electron integral symmetry is turned off.
 One-electron integrals computed using PRISM.
 NBasis=    78 RedAO= T EigKep=  2.45D-04  NBF=    78
 NBsUse=    78 1.00D-06 EigRej= -1.00D+00 NBFU=    78
 ExpMin= 1.08D-01 ExpMax= 1.14D+04 ExpMxC= 1.72D+03 IAcc=3 IRadAn=         5 AccDes= 0.00D+00
 Harris functional with IExCor=  402 and IRadAn=       5 diagonalized for initial guess.
 HarFok:  IExCor=  402 AccDes= 0.00D+00 IRadAn=         5 IDoV= 1 UseB2=F ITyADJ=14
 ICtDFT=  3500011 ScaDFX=  1.000000  1.000000  1.000000  1.000000
 FoFCou: FMM=F IPFlag=           0 FMFlag=      100000 FMFlg1=           0
         NFxFlg=           0 DoJE=T BraDBF=F KetDBF=T FulRan=T
         wScrn=  0.000000 ICntrl=       500 IOpCl=  0 I1Cent=   200000004 NGrid=           0
         NMat0=    1 NMatS0=      1 NMatT0=    0 NMatD0=    1 NMtDS0=    0 NMtDT0=    0
 Symmetry not used in FoFCou.
 Keep R1 ints in memory in canonical form, NReq=6702783.
 Requested convergence on RMS density matrix=1.00D-08 within 128 cycles.
 Requested convergence on MAX density matrix=1.00D-06.
 Requested convergence on             energy=1.00D-06.
 No special actions if energy rises.
 Integral accuracy reduced to 1.0D-05 until final iterations.
 Initial convergence to 1.0D-05 achieved.  Increase integral accuracy.
 SCF Done:  E(RB3LYP) =  -198.994379769     A.U. after    9 cycles
            NFock=  9  Conv=0.43D-08     -V/T= 1.9845

 **********************************************************************

            Population analysis using the SCF density.

 **********************************************************************

 Alpha  occ. eigenvalues --  -24.76904 -24.76779  -1.93388  -0.93882  -0.80483
 Alpha  occ. eigenvalues --   -0.80483  -0.73399  -0.24798  -0.24798
 Alpha virt. eigenvalues --    0.10896   0.13211   0.15605   0.15605   0.24627
 Alpha virt. eigenvalues --    0.27002   0.27002   0.43064   0.67640   0.83407
 Alpha virt. eigenvalues --    0.83407   1.02006   1.03124   1.08633   1.08633
 Alpha virt. eigenvalues --    1.24837   1.28055   1.28055   1.28065   1.28065
 Alpha virt. eigenvalues --    1.32502   1.32502   1.84862   1.88788   1.88788
 Alpha virt. eigenvalues --    2.46538   2.55295   3.76793   3.76793   4.08162
 Alpha virt. eigenvalues --    4.08162   4.34243   4.62548   4.62548   5.33211
 Alpha virt. eigenvalues --    5.33211   5.94374   5.97810   5.97810   6.03332
 Alpha virt. eigenvalues --    6.04829   6.04829   6.17481   6.17481   6.28198
 Alpha virt. eigenvalues --    6.28198   6.85267   6.85267   7.21188   7.21188
 Alpha virt. eigenvalues --    7.57712   8.04532   8.04532   8.61020   9.81246
 Alpha virt. eigenvalues --    9.98399   9.98399  19.03033  19.03033  19.14894
 Alpha virt. eigenvalues --   19.14894  19.34072  19.34072  19.55411  20.68468
 Alpha virt. eigenvalues --   20.69625  20.69625  66.90112  69.25591
          Condensed to atoms (all electrons):
               1          2
     1  F   10.276044  -1.276044
     2  F   -1.276044  10.276044
 Mulliken charges:
               1
     1  F    0.000000
     2  F   -0.000000
 Sum of Mulliken charges =   0.00000
 Mulliken charges with hydrogens summed into heavy atoms:
               1
     1  F    0.000000
     2  F   -0.000000
 Electronic spatial extent (au):  <R**2>=             46.9269
 Charge=              0.0000 electrons
 Dipole moment (field-independent basis, Debye):
    X=             -0.0000    Y=              0.0000    Z=              0.0000  Tot=              0.0000
 Quadrupole moment (field-independent basis, Debye-Ang):
   XX=             -9.1294   YY=             -9.1294   ZZ=            -10.2894
   XY=             -0.0000   XZ=             -0.0000   YZ=             -0.0000
 Traceless Quadrupole moment (field-independent basis, Debye-Ang):
   XX=              0.3867   YY=              0.3867   ZZ=             -0.7733
   XY=             -0.0000   XZ=             -0.0000   YZ=             -0.0000
 Octapole moment (field-independent basis, Debye-Ang**2):
  XXX=             -0.0000  YYY=             -0.0000  ZZZ=            -13.8021  XYY=             -0.0000
  XXY=             -0.0000  XXZ=             -4.0820  XZZ=             -0.0000  YZZ=             -0.0000
  YYZ=             -4.0820  XYZ=             -0.0000
 Hexadecapole moment (field-independent basis, Debye-Ang**3):
 XXXX=             -5.5946 YYYY=             -5.5946 ZZZZ=            -29.6983 XXXY=              0.0000
 XXXZ=             -0.0000 YYYX=              0.0000 YYYZ=             -0.0000 ZZZX=             -0.0000
 ZZZY=              0.0000 XXYY=             -1.8649 XXZZ=             -6.2300 YYZZ=             -6.2300
 XXYZ=             -0.0000 YYXZ=             -0.0000 ZZXY=             -0.0000
 N-N= 4.793175839453D+01 E-N=-5.731457459402D+02  KE= 2.021202238918D+02
 Variable Step   Value    
 -------- ---- -----------
     1       1    1.708800
 ---------------------------------------------------------------------------------------------------
                            Z-MATRIX (ANGSTROMS AND DEGREES)
   CD    Cent   Atom    N1       Length/X        N2       Alpha/Y        N3        Beta/Z          J
 ---------------------------------------------------------------------------------------------------
      1      1  F 
      2      2  F        1   0.904258(     1)
 ---------------------------------------------------------------------------------------------------
                         Z-Matrix orientation:                         
 ---------------------------------------------------------------------
 Center     Atomic      Atomic             Coordinates (Angstroms)
 Number     Number       Type             X           Y           Z
 ---------------------------------------------------------------------
      1          9           0        0.000000    0.000000    0.000000
      2          9           0        0.000000    0.000000    0.904258
 ---------------------------------------------------------------------
 Symmetry turned off by external request.
 Stoichiometry    F2
 Framework group  D*H[C*(F.F)]
 Deg. of freedom     1
 Full point group                 D*H     NOp   8
 Rotational constants (GHZ):           0.0000000          65.0647044          65.0647044
 Standard basis: 6-311++G(3df,3pd) (5D, 7F)
    78 basis functions,   116 primitive gaussians,    90 cartesian basis functions
     9 alpha electrons        9 beta electrons
       nuclear repulsion energy        47.4016910557 Hartrees.
 NAtoms=    2 NActive=    2 NUniq=    2 SFac= 1.00D+00 NAtFMM=   60 NAOKFM=F Big=F
 Integral buffers will be    131072 words long.
 Raffenetti 2 integral format.
 Two-electron integral symmetry is turned off.
 One-electron integrals computed using PRISM.
 NBasis=    78 RedAO= T EigKep=  2.59D-04  NBF=    78
 NBsUse=    78 1.00D-06 EigRej= -1.00D+00 NBFU=    78
 Initial guess from the checkpoint file:  "f2_freq.chk"
 B after Tr=     0.000000    0.000000    0.009449
         Rot=    1.000000    0.000000    0.000000    0.000000 Ang=   0.00 deg.
 ExpMin= 1.08D-01 ExpMax= 1.14D+04 ExpMxC= 1.72D+03 IAcc=2 IRadAn=         4 AccDes= 0.00D+00
 Harris functional with IExCor=  402 and IRadAn=       4 diagonalized for initial guess.
 HarFok:  IExCor=  402 AccDes= 0.00D+00 IRadAn=         4 IDoV= 1 UseB2=F ITyADJ=14
 ICtDFT=  3500011 ScaDFX=  1.000000  1.000000  1.000000  1.000000
 FoFCou: FMM=F IPFlag=           0 FMFlag=      100000 FMFlg1=           0
         NFxFlg=           0 DoJE=T BraDBF=F KetDBF=T FulRan=T
         wScrn=  0.000000 ICntrl=       500 IOpCl=  0 I1Cent=   200000004 NGrid=           0
         NMat0=    1 NMatS0=      1 NMatT0=    0 NMatD0=    1 NMtDS0=    0 NMtDT0=    0
 Symmetry not used in FoFCou.
 Keep R1 ints in memory in canonical form, NReq=6702783.
 Requested convergence on RMS density matrix=1.00D-08 within 128 cycles.
 Requested convergence on MAX density matrix=1.00D-06.
 Requested convergence on             energy=1.00D-06.
 No special actions if energy rises.
 Integral accuracy reduced to 1.0D-05 until final iterations.
 Initial convergence to 1.0D-05 achieved.  Increase integral accuracy.
 SCF Done:  E(RB3LYP) =  -199.034095542     A.U. after    7 cycles
            NFock=  7  Conv=0.91D-08     -V/T= 1.9854

 **********************************************************************

            Population analysis using the SCF density.

 **********************************************************************

 Alpha  occ. eigenvalues --  -24.76813 -24.76702  -1.91430  -0.94218  -0.79466
 Alpha  occ. eigenvalues --   -0.79466  -0.73032  -0.25381  -0.25381
 Alpha virt. eigenvalues --    0.10921   0.13178   0.15703   0.15703   0.24637
 Alpha virt. eigenvalues --    0.26981   0.26981   0.43036   0.65674   0.83558
 Alpha virt. eigenvalues --    0.83558   1.02048   1.02341   1.08983   1.08983
 Alpha virt. eigenvalues --    1.25518   1.27471   1.27471   1.28200   1.28200
 Alpha virt. eigenvalues --    1.32243   1.32243   1.83388   1.88243   1.88243
 Alpha virt. eigenvalues --    2.45442   2.56132   3.76701   3.76701   4.09730
 Alpha virt. eigenvalues --    4.09730   4.32704   4.61923   4.61923   5.30526
 Alpha virt. eigenvalues --    5.30526   5.90871   5.96654   5.96654   6.04696
 Alpha virt. eigenvalues --    6.04696   6.05003   6.18995   6.18995   6.27932
 Alpha virt. eigenvalues --    6.27932   6.84128   6.84128   7.17398   7.17398
 Alpha virt. eigenvalues --    7.51978   8.00695   8.00695   8.52354   9.91634
 Alpha virt. eigenvalues --    9.91634   9.94299  19.03355  19.03355  19.12525
 Alpha virt. eigenvalues --   19.12525  19.33455  19.33455  19.65948  20.57476
 Alpha virt. eigenvalues --   20.65556  20.65556  66.90738  69.04297
          Condensed to atoms (all electrons):
               1          2
     1  F   10.216501  -1.216501
     2  F   -1.216501  10.216501
 Mulliken charges:
               1
     1  F    0.000000
     2  F   -0.000000
 Sum of Mulliken charges =  -0.00000
 Mulliken charges with hydrogens summed into heavy atoms:
               1
     1  F    0.000000
     2  F   -0.000000
 Electronic spatial extent (au):  <R**2>=             47.4893
 Charge=             -0.0000 electrons
 Dipole moment (field-independent basis, Debye):
    X=             -0.0000    Y=             -0.0000    Z=              0.0000  Tot=              0.0000
 Quadrupole moment (field-independent basis, Debye-Ang):
   XX=             -9.1384   YY=             -9.1384   ZZ=            -10.2505
   XY=             -0.0000   XZ=             -0.0000   YZ=             -0.0000
 Traceless Quadrupole moment (field-independent basis, Debye-Ang):
   XX=              0.3707   YY=              0.3707   ZZ=             -0.7414
   XY=             -0.0000   XZ=             -0.0000   YZ=             -0.0000
 Octapole moment (field-independent basis, Debye-Ang**2):
  XXX=             -0.0000  YYY=             -0.0000  ZZZ=            -13.9036  XYY=             -0.0000
  XXY=             -0.0000  XXZ=             -4.1317  XZZ=             -0.0000  YZZ=             -0.0000
  YYZ=             -4.1317  XYZ=              0.0000
 Hexadecapole moment (field-independent basis, Debye-Ang**3):
 XXXX=             -5.5805 YYYY=             -5.5805 ZZZZ=            -30.0654 XXXY=             -0.0000
 XXXZ=             -0.0000 YYYX=             -0.0000 YYYZ=             -0.0000 ZZZX=             -0.0000
 ZZZY=             -0.0000 XXYY=             -1.8602 XXZZ=             -6.2853 YYZZ=             -6.2853
 XXYZ=             -0.0000 YYXZ=             -0.0000 ZZXY=              0.0000
 N-N= 4.740169105573D+01 E-N=-5.720948298791D+02  KE= 2.019795129206D+02
 Variable Step   Value    
 -------- ---- -----------
     1       2    1.727697
 ---------------------------------------------------------------------------------------------------
                            Z-MATRIX (ANGSTROMS AND DEGREES)
   CD    Cent   Atom    N1       Length/X        N2       Alpha/Y        N3        Beta/Z          J
 ---------------------------------------------------------------------------------------------------
      1      1  F 
      2      2  F        1   0.914258(     1)
 ---------------------------------------------------------------------------------------------------
                         Z-Matrix orientation:                         
 ---------------------------------------------------------------------
 Center     Atomic      Atomic             Coordinates (Angstroms)
 Number     Number       Type             X           Y           Z
 ---------------------------------------------------------------------
      1          9           0        0.000000    0.000000    0.000000
      2          9           0        0.000000    0.000000    0.914258
 ---------------------------------------------------------------------
 Symmetry turned off by external request.
 Stoichiometry    F2
 Framework group  D*H[C*(F.F)]
 Deg. of freedom     1
 Full point group                 D*H     NOp   8
 Rotational constants (GHZ):           0.0000000          63.6491548          63.6491548
 Standard basis: 6-311++G(3df,3pd) (5D, 7F)
    78 basis functions,   116 primitive gaussians,    90 cartesian basis functions
     9 alpha electrons        9 beta electrons
       nuclear repulsion energy        46.8832192926 Hartrees.
 NAtoms=    2 NActive=    2 NUniq=    2 SFac= 1.00D+00 NAtFMM=   60 NAOKFM=F Big=F
 Integral buffers will be    131072 words long.
 Raffenetti 2 integral format.
 Two-electron integral symmetry is turned off.
 One-electron integrals computed using PRISM.
 NBasis=    78 RedAO= T EigKep=  2.75D-04  NBF=    78
 NBsUse=    78 1.00D-06 EigRej= -1.00D+00 NBFU=    78
 Initial guess from the checkpoint file:  "f2_freq.chk"
 B after Tr=     0.000000    0.000000    0.009449
         Rot=    1.000000    0.000000    0.000000    0.000000 Ang=   0.00 deg.
 ExpMin= 1.08D-01 ExpMax= 1.14D+04 ExpMxC= 1.72D+03 IAcc=2 IRadAn=         4 AccDes= 0.00D+00
 Harris functional with IExCor=  402 and IRadAn=       4 diagonalized for initial guess.
 HarFok:  IExCor=  402 AccDes= 0.00D+00 IRadAn=         4 IDoV= 1 UseB2=F ITyADJ=14
 ICtDFT=  3500011 ScaDFX=  1.000000  1.000000  1.000000  1.000000
 FoFCou: FMM=F IPFlag=           0 FMFlag=      100000 FMFlg1=           0
         NFxFlg=           0 DoJE=T BraDBF=F KetDBF=T FulRan=T
         wScrn=  0.000000 ICntrl=       500 IOpCl=  0 I1Cent=   200000004 NGrid=           0
         NMat0=    1 NMatS0=      1 NMatT0=    0 NMatD0=    1 NMtDS0=    0 NMtDT0=    0
 Symmetry not used in FoFCou.
 Keep R1 ints in memory in canonical form, NReq=6702783.
 Requested convergence on RMS density matrix=1.00D-08 within 128 cycles.
 Requested convergence on MAX density matrix=1.00D-06.
 Requested convergence on             energy=1.00D-06.
 No special actions if energy rises.
 Integral accuracy reduced to 1.0D-05 until final iterations.
 Initial convergence to 1.0D-05 achieved.  Increase integral accuracy.
 SCF Done:  E(RB3LYP) =  -199.071400049     A.U. after    7 cycles
            NFock=  7  Conv=0.66D-08     -V/T= 1.9863

 **********************************************************************

            Population analysis using the SCF density.

 **********************************************************************

 Alpha  occ. eigenvalues --  -24.76742 -24.76644  -1.89514  -0.94562  -0.78486
 Alpha  occ. eigenvalues --   -0.78486  -0.72681  -0.25954  -0.25954
 Alpha virt. eigenvalues --    0.10943   0.13139   0.15797   0.15797   0.24646
 Alpha virt. eigenvalues --    0.26958   0.26958   0.43004   0.63592   0.83706
 Alpha virt. eigenvalues --    0.83706   1.01164   1.02678   1.09313   1.09313
 Alpha virt. eigenvalues --    1.26176   1.26877   1.26877   1.28318   1.28318
 Alpha virt. eigenvalues --    1.31981   1.31981   1.81941   1.87729   1.87729
 Alpha virt. eigenvalues --    2.44363   2.57036   3.76672   3.76672   4.11280
 Alpha virt. eigenvalues --    4.11280   4.31082   4.61313   4.61313   5.27890
 Alpha virt. eigenvalues --    5.27890   5.87430   5.95611   5.95611   6.04491
 Alpha virt. eigenvalues --    6.04491   6.06627   6.20480   6.20480   6.27707
 Alpha virt. eigenvalues --    6.27707   6.83016   6.83016   7.13682   7.13682
 Alpha virt. eigenvalues --    7.46424   7.96885   7.96885   8.43990   9.84890
 Alpha virt. eigenvalues --    9.84890  10.06328  19.03679  19.03679  19.10330
 Alpha virt. eigenvalues --   19.10330  19.32833  19.32833  19.77280  20.46573
 Alpha virt. eigenvalues --   20.61351  20.61351  66.91150  68.83638
          Condensed to atoms (all electrons):
               1          2
     1  F   10.159080  -1.159080
     2  F   -1.159080  10.159080
 Mulliken charges:
               1
     1  F   -0.000000
     2  F    0.000000
 Sum of Mulliken charges =  -0.00000
 Mulliken charges with hydrogens summed into heavy atoms:
               1
     1  F   -0.000000
     2  F    0.000000
 Electronic spatial extent (au):  <R**2>=             48.0601
 Charge=             -0.0000 electrons
 Dipole moment (field-independent basis, Debye):
    X=              0.0000    Y=              0.0000    Z=             -0.0000  Tot=              0.0000
 Quadrupole moment (field-independent basis, Debye-Ang):
   XX=             -9.1481   YY=             -9.1481   ZZ=            -10.2126
   XY=             -0.0000   XZ=              0.0000   YZ=             -0.0000
 Traceless Quadrupole moment (field-independent basis, Debye-Ang):
   XX=              0.3548   YY=              0.3548   ZZ=             -0.7097
   XY=             -0.0000   XZ=              0.0000   YZ=             -0.0000
 Octapole moment (field-independent basis, Debye-Ang**2):
  XXX=              0.0000  YYY=              0.0000  ZZZ=            -14.0055  XYY=             -0.0000
  XXY=             -0.0000  XXZ=             -4.1819  XZZ=              0.0000  YZZ=             -0.0000
  YYZ=             -4.1819  XYZ=             -0.0000
 Hexadecapole moment (field-independent basis, Debye-Ang**3):
 XXXX=             -5.5693 YYYY=             -5.5693 ZZZZ=            -30.4421 XXXY=             -0.0000
 XXXZ=              0.0000 YYYX=             -0.0000 YYYZ=             -0.0000 ZZZX=              0.0000
 ZZZY=             -0.0000 XXYY=             -1.8564 XXZZ=             -6.3438 YYZZ=             -6.3438
 XXYZ=             -0.0000 YYXZ=              0.0000 ZZXY=             -0.0000
 N-N= 4.688321929260D+01 E-N=-5.710647893358D+02  KE= 2.018447262279D+02
 Variable Step   Value    
 -------- ---- -----------
     1       3    1.746594
 ---------------------------------------------------------------------------------------------------
                            Z-MATRIX (ANGSTROMS AND DEGREES)
   CD    Cent   Atom    N1       Length/X        N2       Alpha/Y        N3        Beta/Z          J
 ---------------------------------------------------------------------------------------------------
      1      1  F 
      2      2  F        1   0.924258(     1)
 ---------------------------------------------------------------------------------------------------
                         Z-Matrix orientation:                         
 ---------------------------------------------------------------------
 Center     Atomic      Atomic             Coordinates (Angstroms)
 Number     Number       Type             X           Y           Z
 ---------------------------------------------------------------------
      1          9           0        0.000000    0.000000    0.000000
      2          9           0        0.000000    0.000000    0.924258
 ---------------------------------------------------------------------
 Symmetry turned off by external request.
 Stoichiometry    F2
 Framework group  D*H[C*(F.F)]
 Deg. of freedom     1
 Full point group                 D*H     NOp   8
 Rotational constants (GHZ):           0.0000000          62.2793027          62.2793027
 Standard basis: 6-311++G(3df,3pd) (5D, 7F)
    78 basis functions,   116 primitive gaussians,    90 cartesian basis functions
     9 alpha electrons        9 beta electrons
       nuclear repulsion energy        46.3759667305 Hartrees.
 NAtoms=    2 NActive=    2 NUniq=    2 SFac= 1.00D+00 NAtFMM=   60 NAOKFM=F Big=F
 Integral buffers will be    131072 words long.
 Raffenetti 2 integral format.
 Two-electron integral symmetry is turned off.
 One-electron integrals computed using PRISM.
 NBasis=    78 RedAO= T EigKep=  2.91D-04  NBF=    78
 NBsUse=    78 1.00D-06 EigRej= -1.00D+00 NBFU=    78
 Initial guess from the checkpoint file:  "f2_freq.chk"
 B after Tr=     0.000000    0.000000    0.009449
         Rot=    1.000000    0.000000    0.000000    0.000000 Ang=   0.00 deg.
 ExpMin= 1.08D-01 ExpMax= 1.14D+04 ExpMxC= 1.72D+03 IAcc=2 IRadAn=         4 AccDes= 0.00D+00
 Harris functional with IExCor=  402 and IRadAn=       4 diagonalized for initial guess.
 HarFok:  IExCor=  402 AccDes= 0.00D+00 IRadAn=         4 IDoV= 1 UseB2=F ITyADJ=14
 ICtDFT=  3500011 ScaDFX=  1.000000  1.000000  1.000000  1.000000
 FoFCou: FMM=F IPFlag=           0 FMFlag=      100000 FMFlg1=           0
         NFxFlg=           0 DoJE=T BraDBF=F KetDBF=T FulRan=T
         wScrn=  0.000000 ICntrl=       500 IOpCl=  0 I1Cent=   200000004 NGrid=           0
         NMat0=    1 NMatS0=      1 NMatT0=    0 NMatD0=    1 NMtDS0=    0 NMtDT0=    0
 Symmetry not used in FoFCou.
 Keep R1 ints in memory in canonical form, NReq=6702753.
 Requested convergence on RMS density matrix=1.00D-08 within 128 cycles.
 Requested convergence on MAX density matrix=1.00D-06.
 Requested convergence on             energy=1.00D-06.
 No special actions if energy rises.
 Integral accuracy reduced to 1.0D-05 until final iterations.
 Initial convergence to 1.0D-05 achieved.  Increase integral accuracy.
 SCF Done:  E(RB3LYP) =  -199.106436453     A.U. after    7 cycles
            NFock=  7  Conv=0.43D-08     -V/T= 1.9871

 **********************************************************************

            Population analysis using the SCF density.

 **********************************************************************

 Alpha  occ. eigenvalues --  -24.76690 -24.76603  -1.87639  -0.94916  -0.77541
 Alpha  occ. eigenvalues --   -0.77541  -0.72344  -0.26517  -0.26517
 Alpha virt. eigenvalues --    0.10961   0.13094   0.15888   0.15888   0.24655
 Alpha virt. eigenvalues --    0.26935   0.26935   0.42968   0.61420   0.83851
 Alpha virt. eigenvalues --    0.83851   1.00453   1.03017   1.09622   1.09622
 Alpha virt. eigenvalues --    1.26285   1.26285   1.26810   1.28412   1.28412
 Alpha virt. eigenvalues --    1.31715   1.31715   1.80522   1.87243   1.87243
 Alpha virt. eigenvalues --    2.43297   2.57994   3.76709   3.76709   4.12811
 Alpha virt. eigenvalues --    4.12811   4.29391   4.60720   4.60720   5.25305
 Alpha virt. eigenvalues --    5.25305   5.84049   5.94683   5.94683   6.04217
 Alpha virt. eigenvalues --    6.04217   6.08179   6.21934   6.21934   6.27517
 Alpha virt. eigenvalues --    6.27517   6.81932   6.81932   7.10041   7.10041
 Alpha virt. eigenvalues --    7.41045   7.93103   7.93103   8.35946   9.78176
 Alpha virt. eigenvalues --    9.78176  10.17208  19.04007  19.04007  19.08311
 Alpha virt. eigenvalues --   19.08311  19.32208  19.32208  19.89185  20.35843
 Alpha virt. eigenvalues --   20.57027  20.57027  66.91365  68.63779
          Condensed to atoms (all electrons):
               1          2
     1  F   10.103735  -1.103735
     2  F   -1.103735  10.103735
 Mulliken charges:
               1
     1  F    0.000000
     2  F   -0.000000
 Sum of Mulliken charges =  -0.00000
 Mulliken charges with hydrogens summed into heavy atoms:
               1
     1  F    0.000000
     2  F   -0.000000
 Electronic spatial extent (au):  <R**2>=             48.6392
 Charge=             -0.0000 electrons
 Dipole moment (field-independent basis, Debye):
    X=              0.0000    Y=              0.0000    Z=             -0.0000  Tot=              0.0000
 Quadrupole moment (field-independent basis, Debye-Ang):
   XX=             -9.1586   YY=             -9.1586   ZZ=            -10.1759
   XY=             -0.0000   XZ=              0.0000   YZ=              0.0000
 Traceless Quadrupole moment (field-independent basis, Debye-Ang):
   XX=              0.3391   YY=              0.3391   ZZ=             -0.6782
   XY=             -0.0000   XZ=              0.0000   YZ=              0.0000
 Octapole moment (field-independent basis, Debye-Ang**2):
  XXX=              0.0000  YYY=              0.0000  ZZZ=            -14.1077  XYY=              0.0000
  XXY=              0.0000  XXZ=             -4.2324  XZZ=              0.0000  YZZ=              0.0000
  YYZ=             -4.2324  XYZ=              0.0000
 Hexadecapole moment (field-independent basis, Debye-Ang**3):
 XXXX=             -5.5607 YYYY=             -5.5607 ZZZZ=            -30.8279 XXXY=              0.0000
 XXXZ=              0.0000 YYYX=              0.0000 YYYZ=             -0.0000 ZZZX=              0.0000
 ZZZY=              0.0000 XXYY=             -1.8536 XXZZ=             -6.4056 YYZZ=             -6.4056
 XXYZ=             -0.0000 YYXZ=              0.0000 ZZXY=              0.0000
 N-N= 4.637596673046D+01 E-N=-5.700550972303D+02  KE= 2.017155970814D+02
 Variable Step   Value    
 -------- ---- -----------
     1       4    1.765492
 ---------------------------------------------------------------------------------------------------
                            Z-MATRIX (ANGSTROMS AND DEGREES)
   CD    Cent   Atom    N1       Length/X        N2       Alpha/Y        N3        Beta/Z          J
 ---------------------------------------------------------------------------------------------------
      1      1  F 
      2      2  F        1   0.934258(     1)
 ---------------------------------------------------------------------------------------------------
                         Z-Matrix orientation:                         
 ---------------------------------------------------------------------
 Center     Atomic      Atomic             Coordinates (Angstroms)
 Number     Number       Type             X           Y           Z
 ---------------------------------------------------------------------
      1          9           0        0.000000    0.000000    0.000000
      2          9           0        0.000000    0.000000    0.934258
 ---------------------------------------------------------------------
 Symmetry turned off by external request.
 Stoichiometry    F2
 Framework group  D*H[C*(F.F)]
 Deg. of freedom     1
 Full point group                 D*H     NOp   8
 Rotational constants (GHZ):           0.0000000          60.9532022          60.9532022
 Standard basis: 6-311++G(3df,3pd) (5D, 7F)
    78 basis functions,   116 primitive gaussians,    90 cartesian basis functions
     9 alpha electrons        9 beta electrons
       nuclear repulsion energy        45.8795731090 Hartrees.
 NAtoms=    2 NActive=    2 NUniq=    2 SFac= 1.00D+00 NAtFMM=   60 NAOKFM=F Big=F
 Integral buffers will be    131072 words long.
 Raffenetti 2 integral format.
 Two-electron integral symmetry is turned off.
 One-electron integrals computed using PRISM.
 NBasis=    78 RedAO= T EigKep=  3.07D-04  NBF=    78
 NBsUse=    78 1.00D-06 EigRej= -1.00D+00 NBFU=    78
 Initial guess from the checkpoint file:  "f2_freq.chk"
 B after Tr=     0.000000    0.000000    0.009449
         Rot=    1.000000    0.000000    0.000000    0.000000 Ang=   0.00 deg.
 ExpMin= 1.08D-01 ExpMax= 1.14D+04 ExpMxC= 1.72D+03 IAcc=2 IRadAn=         4 AccDes= 0.00D+00
 Harris functional with IExCor=  402 and IRadAn=       4 diagonalized for initial guess.
 HarFok:  IExCor=  402 AccDes= 0.00D+00 IRadAn=         4 IDoV= 1 UseB2=F ITyADJ=14
 ICtDFT=  3500011 ScaDFX=  1.000000  1.000000  1.000000  1.000000
 FoFCou: FMM=F IPFlag=           0 FMFlag=      100000 FMFlg1=           0
         NFxFlg=           0 DoJE=T BraDBF=F KetDBF=T FulRan=T
         wScrn=  0.000000 ICntrl=       500 IOpCl=  0 I1Cent=   200000004 NGrid=           0
         NMat0=    1 NMatS0=      1 NMatT0=    0 NMatD0=    1 NMtDS0=    0 NMtDT0=    0
 Symmetry not used in FoFCou.
 Keep R1 ints in memory in canonical form, NReq=6702753.
 Requested convergence on RMS density matrix=1.00D-08 within 128 cycles.
 Requested convergence on MAX density matrix=1.00D-06.
 Requested convergence on             energy=1.00D-06.
 No special actions if energy rises.
 Integral accuracy reduced to 1.0D-05 until final iterations.
 Initial convergence to 1.0D-05 achieved.  Increase integral accuracy.
 SCF Done:  E(RB3LYP) =  -199.139339128     A.U. after    7 cycles
            NFock=  7  Conv=0.27D-08     -V/T= 1.9878

 **********************************************************************

            Population analysis using the SCF density.

 **********************************************************************

 Alpha  occ. eigenvalues --  -24.76655 -24.76578  -1.85805  -0.95277  -0.76630
 Alpha  occ. eigenvalues --   -0.76630  -0.72020  -0.27068  -0.27068
 Alpha virt. eigenvalues --    0.10977   0.13043   0.15976   0.15976   0.24664
 Alpha virt. eigenvalues --    0.26911   0.26911   0.42927   0.59182   0.83993
 Alpha virt. eigenvalues --    0.83993   0.99897   1.03358   1.09908   1.09908
 Alpha virt. eigenvalues --    1.25697   1.25697   1.27423   1.28483   1.28483
 Alpha virt. eigenvalues --    1.31447   1.31447   1.79131   1.86783   1.86783
 Alpha virt. eigenvalues --    2.42243   2.58996   3.76814   3.76814   4.14321
 Alpha virt. eigenvalues --    4.14321   4.27642   4.60144   4.60144   5.22770
 Alpha virt. eigenvalues --    5.22770   5.80728   5.93871   5.93871   6.03880
 Alpha virt. eigenvalues --    6.03880   6.09639   6.23357   6.23357   6.27358
 Alpha virt. eigenvalues --    6.27358   6.80874   6.80874   7.06476   7.06476
 Alpha virt. eigenvalues --    7.35837   7.89352   7.89352   8.28235   9.71499
 Alpha virt. eigenvalues --    9.71499  10.26849  19.04337  19.04337  19.06468
 Alpha virt. eigenvalues --   19.06468  19.31583  19.31583  20.01425  20.25358
 Alpha virt. eigenvalues --   20.52604  20.52604  66.91401  68.44865
          Condensed to atoms (all electrons):
               1          2
     1  F   10.050420  -1.050420
     2  F   -1.050420  10.050420
 Mulliken charges:
               1
     1  F   -0.000000
     2  F    0.000000
 Sum of Mulliken charges =  -0.00000
 Mulliken charges with hydrogens summed into heavy atoms:
               1
     1  F   -0.000000
     2  F    0.000000
 Electronic spatial extent (au):  <R**2>=             49.2263
 Charge=              0.0000 electrons
 Dipole moment (field-independent basis, Debye):
    X=             -0.0000    Y=             -0.0000    Z=             -0.0000  Tot=              0.0000
 Quadrupole moment (field-independent basis, Debye-Ang):
   XX=             -9.1696   YY=             -9.1696   ZZ=            -10.1400
   XY=              0.0000   XZ=              0.0000   YZ=              0.0000
 Traceless Quadrupole moment (field-independent basis, Debye-Ang):
   XX=              0.3235   YY=              0.3235   ZZ=             -0.6469
   XY=              0.0000   XZ=              0.0000   YZ=              0.0000
 Octapole moment (field-independent basis, Debye-Ang**2):
  XXX=             -0.0000  YYY=             -0.0000  ZZZ=            -14.2101  XYY=             -0.0000
  XXY=             -0.0000  XXZ=             -4.2834  XZZ=              0.0000  YZZ=              0.0000
  YYZ=             -4.2834  XYZ=             -0.0000
 Hexadecapole moment (field-independent basis, Debye-Ang**3):
 XXXX=             -5.5545 YYYY=             -5.5545 ZZZZ=            -31.2223 XXXY=              0.0000
 XXXZ=              0.0000 YYYX=              0.0000 YYYZ=              0.0000 ZZZX=              0.0000
 ZZZY=              0.0000 XXYY=             -1.8515 XXZZ=             -6.4703 YYZZ=             -6.4703
 XXYZ=              0.0000 YYXZ=              0.0000 ZZXY=             -0.0000
 N-N= 4.587957310901D+01 E-N=-5.690652414849D+02  KE= 2.015918727529D+02
 Variable Step   Value    
 -------- ---- -----------
     1       5    1.784389
 ---------------------------------------------------------------------------------------------------
                            Z-MATRIX (ANGSTROMS AND DEGREES)
   CD    Cent   Atom    N1       Length/X        N2       Alpha/Y        N3        Beta/Z          J
 ---------------------------------------------------------------------------------------------------
      1      1  F 
      2      2  F        1   0.944258(     1)
 ---------------------------------------------------------------------------------------------------
                         Z-Matrix orientation:                         
 ---------------------------------------------------------------------
 Center     Atomic      Atomic             Coordinates (Angstroms)
 Number     Number       Type             X           Y           Z
 ---------------------------------------------------------------------
      1          9           0        0.000000    0.000000    0.000000
      2          9           0        0.000000    0.000000    0.944258
 ---------------------------------------------------------------------
 Symmetry turned off by external request.
 Stoichiometry    F2
 Framework group  D*H[C*(F.F)]
 Deg. of freedom     1
 Full point group                 D*H     NOp   8
 Rotational constants (GHZ):           0.0000000          59.6690098          59.6690098
 Standard basis: 6-311++G(3df,3pd) (5D, 7F)
    78 basis functions,   116 primitive gaussians,    90 cartesian basis functions
     9 alpha electrons        9 beta electrons
       nuclear repulsion energy        45.3936934291 Hartrees.
 NAtoms=    2 NActive=    2 NUniq=    2 SFac= 1.00D+00 NAtFMM=   60 NAOKFM=F Big=F
 Integral buffers will be    131072 words long.
 Raffenetti 2 integral format.
 Two-electron integral symmetry is turned off.
 One-electron integrals computed using PRISM.
 NBasis=    78 RedAO= T EigKep=  3.25D-04  NBF=    78
 NBsUse=    78 1.00D-06 EigRej= -1.00D+00 NBFU=    78
 Initial guess from the checkpoint file:  "f2_freq.chk"
 B after Tr=     0.000000    0.000000    0.009449
         Rot=    1.000000    0.000000    0.000000    0.000000 Ang=   0.00 deg.
 ExpMin= 1.08D-01 ExpMax= 1.14D+04 ExpMxC= 1.72D+03 IAcc=2 IRadAn=         4 AccDes= 0.00D+00
 Harris functional with IExCor=  402 and IRadAn=       4 diagonalized for initial guess.
 HarFok:  IExCor=  402 AccDes= 0.00D+00 IRadAn=         4 IDoV= 1 UseB2=F ITyADJ=14
 ICtDFT=  3500011 ScaDFX=  1.000000  1.000000  1.000000  1.000000
 FoFCou: FMM=F IPFlag=           0 FMFlag=      100000 FMFlg1=           0
         NFxFlg=           0 DoJE=T BraDBF=F KetDBF=T FulRan=T
         wScrn=  0.000000 ICntrl=       500 IOpCl=  0 I1Cent=   200000004 NGrid=           0
         NMat0=    1 NMatS0=      1 NMatT0=    0 NMatD0=    1 NMtDS0=    0 NMtDT0=    0
 Symmetry not used in FoFCou.
 Keep R1 ints in memory in canonical form, NReq=6702753.
 Requested convergence on RMS density matrix=1.00D-08 within 128 cycles.
 Requested convergence on MAX density matrix=1.00D-06.
 Requested convergence on             energy=1.00D-06.
 No special actions if energy rises.
 Integral accuracy reduced to 1.0D-05 until final iterations.
 Initial convergence to 1.0D-05 achieved.  Increase integral accuracy.
 SCF Done:  E(RB3LYP) =  -199.170234161     A.U. after    7 cycles
            NFock=  7  Conv=0.13D-08     -V/T= 1.9886

 **********************************************************************

            Population analysis using the SCF density.

 **********************************************************************

 Alpha  occ. eigenvalues --  -24.76636 -24.76567  -1.84011  -0.95645  -0.75751
 Alpha  occ. eigenvalues --   -0.75751  -0.71709  -0.27609  -0.27609
 Alpha virt. eigenvalues --    0.10990   0.12984   0.16061   0.16061   0.24673
 Alpha virt. eigenvalues --    0.26886   0.26886   0.42880   0.56903   0.84134
 Alpha virt. eigenvalues --    0.84134   0.99477   1.03699   1.10171   1.10171
 Alpha virt. eigenvalues --    1.25116   1.25116   1.28014   1.28533   1.28533
 Alpha virt. eigenvalues --    1.31177   1.31177   1.77768   1.86345   1.86345
 Alpha virt. eigenvalues --    2.41199   2.60034   3.76988   3.76988   4.15807
 Alpha virt. eigenvalues --    4.15807   4.25845   4.59584   4.59584   5.20286
 Alpha virt. eigenvalues --    5.20286   5.77465   5.93179   5.93179   6.03483
 Alpha virt. eigenvalues --    6.03483   6.10986   6.24748   6.24748   6.27227
 Alpha virt. eigenvalues --    6.27227   6.79845   6.79845   7.02989   7.02989
 Alpha virt. eigenvalues --    7.30791   7.85633   7.85633   8.20870   9.64865
 Alpha virt. eigenvalues --    9.64865  10.35194  19.04670  19.04670  19.04802
 Alpha virt. eigenvalues --   19.04802  19.30962  19.30962  20.13753  20.15178
 Alpha virt. eigenvalues --   20.48099  20.48099  66.91277  68.27019
          Condensed to atoms (all electrons):
               1          2
     1  F    9.999088  -0.999088
     2  F   -0.999088   9.999088
 Mulliken charges:
               1
     1  F   -0.000000
     2  F    0.000000
 Sum of Mulliken charges =  -0.00000
 Mulliken charges with hydrogens summed into heavy atoms:
               1
     1  F   -0.000000
     2  F    0.000000
 Electronic spatial extent (au):  <R**2>=             49.8213
 Charge=             -0.0000 electrons
 Dipole moment (field-independent basis, Debye):
    X=             -0.0000    Y=              0.0000    Z=             -0.0000  Tot=              0.0000
 Quadrupole moment (field-independent basis, Debye-Ang):
   XX=             -9.1813   YY=             -9.1813   ZZ=            -10.1050
   XY=              0.0000   XZ=             -0.0000   YZ=              0.0000
 Traceless Quadrupole moment (field-independent basis, Debye-Ang):
   XX=              0.3079   YY=              0.3079   ZZ=             -0.6158
   XY=              0.0000   XZ=             -0.0000   YZ=              0.0000
 Octapole moment (field-independent basis, Debye-Ang**2):
  XXX=             -0.0000  YYY=              0.0000  ZZZ=            -14.3126  XYY=             -0.0000
  XXY=              0.0000  XXZ=             -4.3348  XZZ=             -0.0000  YZZ=             -0.0000
  YYZ=             -4.3348  XYZ=              0.0000
 Hexadecapole moment (field-independent basis, Debye-Ang**3):
 XXXX=             -5.5505 YYYY=             -5.5505 ZZZZ=            -31.6248 XXXY=              0.0000
 XXXZ=             -0.0000 YYYX=              0.0000 YYYZ=             -0.0000 ZZZX=             -0.0000
 ZZZY=             -0.0000 XXYY=             -1.8502 XXZZ=             -6.5379 YYZZ=             -6.5379
 XXYZ=             -0.0000 YYXZ=             -0.0000 ZZXY=              0.0000
 N-N= 4.539369342908D+01 E-N=-5.680947235851D+02  KE= 2.014733133660D+02
 Variable Step   Value    
 -------- ---- -----------
     1       6    1.803286
 ---------------------------------------------------------------------------------------------------
                            Z-MATRIX (ANGSTROMS AND DEGREES)
   CD    Cent   Atom    N1       Length/X        N2       Alpha/Y        N3        Beta/Z          J
 ---------------------------------------------------------------------------------------------------
      1      1  F 
      2      2  F        1   0.954258(     1)
 ---------------------------------------------------------------------------------------------------
                         Z-Matrix orientation:                         
 ---------------------------------------------------------------------
 Center     Atomic      Atomic             Coordinates (Angstroms)
 Number     Number       Type             X           Y           Z
 ---------------------------------------------------------------------
      1          9           0        0.000000    0.000000    0.000000
      2          9           0        0.000000    0.000000    0.954258
 ---------------------------------------------------------------------
 Symmetry turned off by external request.
 Stoichiometry    F2
 Framework group  D*H[C*(F.F)]
 Deg. of freedom     1
 Full point group                 D*H     NOp   8
 Rotational constants (GHZ):           0.0000000          58.4249779          58.4249779
 Standard basis: 6-311++G(3df,3pd) (5D, 7F)
    78 basis functions,   116 primitive gaussians,    90 cartesian basis functions
     9 alpha electrons        9 beta electrons
       nuclear repulsion energy        44.9179971529 Hartrees.
 NAtoms=    2 NActive=    2 NUniq=    2 SFac= 1.00D+00 NAtFMM=   60 NAOKFM=F Big=F
 Integral buffers will be    131072 words long.
 Raffenetti 2 integral format.
 Two-electron integral symmetry is turned off.
 One-electron integrals computed using PRISM.
 NBasis=    78 RedAO= T EigKep=  3.43D-04  NBF=    78
 NBsUse=    78 1.00D-06 EigRej= -1.00D+00 NBFU=    78
 Initial guess from the checkpoint file:  "f2_freq.chk"
 B after Tr=     0.000000    0.000000    0.009449
         Rot=    1.000000    0.000000    0.000000    0.000000 Ang=   0.00 deg.
 ExpMin= 1.08D-01 ExpMax= 1.14D+04 ExpMxC= 1.72D+03 IAcc=2 IRadAn=         4 AccDes= 0.00D+00
 Harris functional with IExCor=  402 and IRadAn=       4 diagonalized for initial guess.
 HarFok:  IExCor=  402 AccDes= 0.00D+00 IRadAn=         4 IDoV= 1 UseB2=F ITyADJ=14
 ICtDFT=  3500011 ScaDFX=  1.000000  1.000000  1.000000  1.000000
 FoFCou: FMM=F IPFlag=           0 FMFlag=      100000 FMFlg1=           0
         NFxFlg=           0 DoJE=T BraDBF=F KetDBF=T FulRan=T
         wScrn=  0.000000 ICntrl=       500 IOpCl=  0 I1Cent=   200000004 NGrid=           0
         NMat0=    1 NMatS0=      1 NMatT0=    0 NMatD0=    1 NMtDS0=    0 NMtDT0=    0
 Symmetry not used in FoFCou.
 Keep R1 ints in memory in canonical form, NReq=6702723.
 Requested convergence on RMS density matrix=1.00D-08 within 128 cycles.
 Requested convergence on MAX density matrix=1.00D-06.
 Requested convergence on             energy=1.00D-06.
 No special actions if energy rises.
 Integral accuracy reduced to 1.0D-05 until final iterations.
 Initial convergence to 1.0D-05 achieved.  Increase integral accuracy.
 SCF Done:  E(RB3LYP) =  -199.199239832     A.U. after    7 cycles
            NFock=  7  Conv=0.16D-08     -V/T= 1.9893

 **********************************************************************

            Population analysis using the SCF density.

 **********************************************************************

 Alpha  occ. eigenvalues --  -24.76630 -24.76568  -1.82257  -0.96019  -0.74902
 Alpha  occ. eigenvalues --   -0.74902  -0.71408  -0.28138  -0.28138
 Alpha virt. eigenvalues --    0.11001   0.12917   0.16142   0.16142   0.24682
 Alpha virt. eigenvalues --    0.26861   0.26861   0.42825   0.54607   0.84272
 Alpha virt. eigenvalues --    0.84272   0.99176   1.04041   1.10411   1.10411
 Alpha virt. eigenvalues --    1.24542   1.24542   1.28564   1.28564   1.28585
 Alpha virt. eigenvalues --    1.30905   1.30905   1.76434   1.85927   1.85927
 Alpha virt. eigenvalues --    2.40162   2.61101   3.77235   3.77235   4.17267
 Alpha virt. eigenvalues --    4.17267   4.24012   4.59042   4.59042   5.17851
 Alpha virt. eigenvalues --    5.17851   5.74256   5.92606   5.92606   6.03029
 Alpha virt. eigenvalues --    6.03029   6.12200   6.26106   6.26106   6.27119
 Alpha virt. eigenvalues --    6.27119   6.78845   6.78845   6.99581   6.99581
 Alpha virt. eigenvalues --    7.25901   7.81950   7.81950   8.13860   9.58280
 Alpha virt. eigenvalues --    9.58280  10.42218  19.03307  19.03307  19.05006
 Alpha virt. eigenvalues --   19.05006  19.30347  19.30347  20.05350  20.25923
 Alpha virt. eigenvalues --   20.43533  20.43533  66.91009  68.10336
          Condensed to atoms (all electrons):
               1          2
     1  F    9.949685  -0.949685
     2  F   -0.949685   9.949685
 Mulliken charges:
               1
     1  F    0.000000
     2  F   -0.000000
 Sum of Mulliken charges =  -0.00000
 Mulliken charges with hydrogens summed into heavy atoms:
               1
     1  F    0.000000
     2  F   -0.000000
 Electronic spatial extent (au):  <R**2>=             50.4241
 Charge=             -0.0000 electrons
 Dipole moment (field-independent basis, Debye):
    X=              0.0000    Y=              0.0000    Z=             -0.0000  Tot=              0.0000
 Quadrupole moment (field-independent basis, Debye-Ang):
   XX=             -9.1934   YY=             -9.1934   ZZ=            -10.0707
   XY=              0.0000   XZ=              0.0000   YZ=             -0.0000
 Traceless Quadrupole moment (field-independent basis, Debye-Ang):
   XX=              0.2924   YY=              0.2924   ZZ=             -0.5848
   XY=              0.0000   XZ=              0.0000   YZ=             -0.0000
 Octapole moment (field-independent basis, Debye-Ang**2):
  XXX=             -0.0000  YYY=              0.0000  ZZZ=            -14.4151  XYY=             -0.0000
  XXY=              0.0000  XXZ=             -4.3865  XZZ=              0.0000  YZZ=             -0.0000
  YYZ=             -4.3865  XYZ=              0.0000
 Hexadecapole moment (field-independent basis, Debye-Ang**3):
 XXXX=             -5.5485 YYYY=             -5.5485 ZZZZ=            -32.0352 XXXY=              0.0000
 XXXZ=              0.0000 YYYX=              0.0000 YYYZ=              0.0000 ZZZX=              0.0000
 ZZZY=             -0.0000 XXYY=             -1.8495 XXZZ=             -6.6083 YYZZ=             -6.6083
 XXYZ=              0.0000 YYXZ=              0.0000 ZZXY=              0.0000
 N-N= 4.491799715291D+01 E-N=-5.671430576537D+02  KE= 2.013596906812D+02
 Variable Step   Value    
 -------- ---- -----------
     1       7    1.822183
 ---------------------------------------------------------------------------------------------------
                            Z-MATRIX (ANGSTROMS AND DEGREES)
   CD    Cent   Atom    N1       Length/X        N2       Alpha/Y        N3        Beta/Z          J
 ---------------------------------------------------------------------------------------------------
      1      1  F 
      2      2  F        1   0.964258(     1)
 ---------------------------------------------------------------------------------------------------
                         Z-Matrix orientation:                         
 ---------------------------------------------------------------------
 Center     Atomic      Atomic             Coordinates (Angstroms)
 Number     Number       Type             X           Y           Z
 ---------------------------------------------------------------------
      1          9           0        0.000000    0.000000    0.000000
      2          9           0        0.000000    0.000000    0.964258
 ---------------------------------------------------------------------
 Symmetry turned off by external request.
 Stoichiometry    F2
 Framework group  D*H[C*(F.F)]
 Deg. of freedom     1
 Full point group                 D*H     NOp   8
 Rotational constants (GHZ):           0.0000000          57.2194493          57.2194493
 Standard basis: 6-311++G(3df,3pd) (5D, 7F)
    78 basis functions,   116 primitive gaussians,    90 cartesian basis functions
     9 alpha electrons        9 beta electrons
       nuclear repulsion energy        44.4521674544 Hartrees.
 NAtoms=    2 NActive=    2 NUniq=    2 SFac= 1.00D+00 NAtFMM=   60 NAOKFM=F Big=F
 Integral buffers will be    131072 words long.
 Raffenetti 2 integral format.
 Two-electron integral symmetry is turned off.
 One-electron integrals computed using PRISM.
 NBasis=    78 RedAO= T EigKep=  3.62D-04  NBF=    78
 NBsUse=    78 1.00D-06 EigRej= -1.00D+00 NBFU=    78
 Initial guess from the checkpoint file:  "f2_freq.chk"
 B after Tr=     0.000000    0.000000    0.009449
         Rot=    1.000000    0.000000    0.000000    0.000000 Ang=   0.00 deg.
 ExpMin= 1.08D-01 ExpMax= 1.14D+04 ExpMxC= 1.72D+03 IAcc=2 IRadAn=         4 AccDes= 0.00D+00
 Harris functional with IExCor=  402 and IRadAn=       4 diagonalized for initial guess.
 HarFok:  IExCor=  402 AccDes= 0.00D+00 IRadAn=         4 IDoV= 1 UseB2=F ITyADJ=14
 ICtDFT=  3500011 ScaDFX=  1.000000  1.000000  1.000000  1.000000
 FoFCou: FMM=F IPFlag=           0 FMFlag=      100000 FMFlg1=           0
         NFxFlg=           0 DoJE=T BraDBF=F KetDBF=T FulRan=T
         wScrn=  0.000000 ICntrl=       500 IOpCl=  0 I1Cent=   200000004 NGrid=           0
         NMat0=    1 NMatS0=      1 NMatT0=    0 NMatD0=    1 NMtDS0=    0 NMtDT0=    0
 Symmetry not used in FoFCou.
 Keep R1 ints in memory in canonical form, NReq=6702723.
 Requested convergence on RMS density matrix=1.00D-08 within 128 cycles.
 Requested convergence on MAX density matrix=1.00D-06.
 Requested convergence on             energy=1.00D-06.
 No special actions if energy rises.
 Integral accuracy reduced to 1.0D-05 until final iterations.
 Initial convergence to 1.0D-05 achieved.  Increase integral accuracy.
 SCF Done:  E(RB3LYP) =  -199.226467101     A.U. after    7 cycles
            NFock=  7  Conv=0.25D-08     -V/T= 1.9899

 **********************************************************************

            Population analysis using the SCF density.

 **********************************************************************

 Alpha  occ. eigenvalues --  -24.76636 -24.76581  -1.80542  -0.96398  -0.74082
 Alpha  occ. eigenvalues --   -0.74082  -0.71118  -0.28657  -0.28657
 Alpha virt. eigenvalues --    0.11009   0.12842   0.16221   0.16221   0.24692
 Alpha virt. eigenvalues --    0.26835   0.26835   0.42757   0.52317   0.84408
 Alpha virt. eigenvalues --    0.84408   0.98980   1.04384   1.10625   1.10625
 Alpha virt. eigenvalues --    1.23979   1.23979   1.28578   1.28578   1.29136
 Alpha virt. eigenvalues --    1.30631   1.30631   1.75129   1.85527   1.85527
 Alpha virt. eigenvalues --    2.39130   2.62188   3.77555   3.77555   4.18698
 Alpha virt. eigenvalues --    4.18698   4.22151   4.58517   4.58517   5.15466
 Alpha virt. eigenvalues --    5.15466   5.71102   5.92153   5.92153   6.02522
 Alpha virt. eigenvalues --    6.02522   6.13264   6.27032   6.27032   6.27431
 Alpha virt. eigenvalues --    6.27431   6.77873   6.77873   6.96253   6.96253
 Alpha virt. eigenvalues --    7.21160   7.78304   7.78304   8.07216   9.51749
 Alpha virt. eigenvalues --    9.51749  10.47925  19.01982  19.01982  19.05342
 Alpha virt. eigenvalues --   19.05342  19.29739  19.29739  19.95911  20.37700
 Alpha virt. eigenvalues --   20.38924  20.38924  66.90617  67.94887
          Condensed to atoms (all electrons):
               1          2
     1  F    9.902158  -0.902158
     2  F   -0.902158   9.902158
 Mulliken charges:
               1
     1  F   -0.000000
     2  F    0.000000
 Sum of Mulliken charges =  -0.00000
 Mulliken charges with hydrogens summed into heavy atoms:
               1
     1  F   -0.000000
     2  F    0.000000
 Electronic spatial extent (au):  <R**2>=             51.0344
 Charge=             -0.0000 electrons
 Dipole moment (field-independent basis, Debye):
    X=             -0.0000    Y=             -0.0000    Z=             -0.0000  Tot=              0.0000
 Quadrupole moment (field-independent basis, Debye-Ang):
   XX=             -9.2060   YY=             -9.2060   ZZ=            -10.0371
   XY=             -0.0000   XZ=             -0.0000   YZ=              0.0000
 Traceless Quadrupole moment (field-independent basis, Debye-Ang):
   XX=              0.2770   YY=              0.2770   ZZ=             -0.5540
   XY=             -0.0000   XZ=             -0.0000   YZ=              0.0000
 Octapole moment (field-independent basis, Debye-Ang**2):
  XXX=              0.0000  YYY=             -0.0000  ZZZ=            -14.5175  XYY=              0.0000
  XXY=              0.0000  XXZ=             -4.4385  XZZ=             -0.0000  YZZ=             -0.0000
  YYZ=             -4.4385  XYZ=             -0.0000
 Hexadecapole moment (field-independent basis, Debye-Ang**3):
 XXXX=             -5.5483 YYYY=             -5.5483 ZZZZ=            -32.4531 XXXY=             -0.0000
 XXXZ=             -0.0000 YYYX=             -0.0000 YYYZ=              0.0000 ZZZX=              0.0000
 ZZZY=              0.0000 XXYY=             -1.8494 XXZZ=             -6.6812 YYZZ=             -6.6812
 XXYZ=              0.0000 YYXZ=             -0.0000 ZZXY=             -0.0000
 N-N= 4.445216745437D+01 E-N=-5.662097712004D+02  KE= 2.012507881218D+02
 Variable Step   Value    
 -------- ---- -----------
     1       8    1.841081
 ---------------------------------------------------------------------------------------------------
                            Z-MATRIX (ANGSTROMS AND DEGREES)
   CD    Cent   Atom    N1       Length/X        N2       Alpha/Y        N3        Beta/Z          J
 ---------------------------------------------------------------------------------------------------
      1      1  F 
      2      2  F        1   0.974258(     1)
 ---------------------------------------------------------------------------------------------------
                         Z-Matrix orientation:                         
 ---------------------------------------------------------------------
 Center     Atomic      Atomic             Coordinates (Angstroms)
 Number     Number       Type             X           Y           Z
 ---------------------------------------------------------------------
      1          9           0        0.000000    0.000000    0.000000
      2          9           0        0.000000    0.000000    0.974258
 ---------------------------------------------------------------------
 Symmetry turned off by external request.
 Stoichiometry    F2
 Framework group  D*H[C*(F.F)]
 Deg. of freedom     1
 Full point group                 D*H     NOp   8
 Rotational constants (GHZ):           0.0000000          56.0508513          56.0508513
 Standard basis: 6-311++G(3df,3pd) (5D, 7F)
    78 basis functions,   116 primitive gaussians,    90 cartesian basis functions
     9 alpha electrons        9 beta electrons
       nuclear repulsion energy        43.9959005152 Hartrees.
 NAtoms=    2 NActive=    2 NUniq=    2 SFac= 1.00D+00 NAtFMM=   60 NAOKFM=F Big=F
 Integral buffers will be    131072 words long.
 Raffenetti 2 integral format.
 Two-electron integral symmetry is turned off.
 One-electron integrals computed using PRISM.
 NBasis=    78 RedAO= T EigKep=  3.82D-04  NBF=    78
 NBsUse=    78 1.00D-06 EigRej= -1.00D+00 NBFU=    78
 Initial guess from the checkpoint file:  "f2_freq.chk"
 B after Tr=     0.000000    0.000000    0.009449
         Rot=    1.000000    0.000000    0.000000    0.000000 Ang=   0.00 deg.
 ExpMin= 1.08D-01 ExpMax= 1.14D+04 ExpMxC= 1.72D+03 IAcc=2 IRadAn=         4 AccDes= 0.00D+00
 Harris functional with IExCor=  402 and IRadAn=       4 diagonalized for initial guess.
 HarFok:  IExCor=  402 AccDes= 0.00D+00 IRadAn=         4 IDoV= 1 UseB2=F ITyADJ=14
 ICtDFT=  3500011 ScaDFX=  1.000000  1.000000  1.000000  1.000000
 FoFCou: FMM=F IPFlag=           0 FMFlag=      100000 FMFlg1=           0
         NFxFlg=           0 DoJE=T BraDBF=F KetDBF=T FulRan=T
         wScrn=  0.000000 ICntrl=       500 IOpCl=  0 I1Cent=   200000004 NGrid=           0
         NMat0=    1 NMatS0=      1 NMatT0=    0 NMatD0=    1 NMtDS0=    0 NMtDT0=    0
 Symmetry not used in FoFCou.
 Keep R1 ints in memory in canonical form, NReq=6702723.
 Requested convergence on RMS density matrix=1.00D-08 within 128 cycles.
 Requested convergence on MAX density matrix=1.00D-06.
 Requested convergence on             energy=1.00D-06.
 No special actions if energy rises.
 Integral accuracy reduced to 1.0D-05 until final iterations.
 Initial convergence to 1.0D-05 achieved.  Increase integral accuracy.
 SCF Done:  E(RB3LYP) =  -199.252020083     A.U. after    7 cycles
            NFock=  7  Conv=0.34D-08     -V/T= 1.9906

 **********************************************************************

            Population analysis using the SCF density.

 **********************************************************************

 Alpha  occ. eigenvalues --  -24.76653 -24.76604  -1.78865  -0.96783  -0.73291
 Alpha  occ. eigenvalues --   -0.73291  -0.70838  -0.29164  -0.29164
 Alpha virt. eigenvalues --    0.11016   0.12756   0.16298   0.16298   0.24702
 Alpha virt. eigenvalues --    0.26809   0.26809   0.42665   0.50059   0.84543
 Alpha virt. eigenvalues --    0.84543   0.98875   1.04728   1.10812   1.10812
 Alpha virt. eigenvalues --    1.23430   1.23430   1.28576   1.28576   1.29667
 Alpha virt. eigenvalues --    1.30356   1.30356   1.73852   1.85142   1.85142
 Alpha virt. eigenvalues --    2.38099   2.63291   3.77952   3.77952   4.20098
 Alpha virt. eigenvalues --    4.20098   4.20272   4.58009   4.58009   5.13131
 Alpha virt. eigenvalues --    5.13131   5.68000   5.91823   5.91823   6.01966
 Alpha virt. eigenvalues --    6.01966   6.14159   6.26961   6.26961   6.28722
 Alpha virt. eigenvalues --    6.28722   6.76930   6.76930   6.93007   6.93007
 Alpha virt. eigenvalues --    7.16561   7.74697   7.74697   8.00942   9.45274
 Alpha virt. eigenvalues --    9.45274  10.52344  19.00820  19.00820  19.05679
 Alpha virt. eigenvalues --   19.05679  19.29141  19.29141  19.86892  20.34291
 Alpha virt. eigenvalues --   20.34291  20.48869  66.90115  67.80714
          Condensed to atoms (all electrons):
               1          2
     1  F    9.856450  -0.856450
     2  F   -0.856450   9.856450
 Mulliken charges:
               1
     1  F    0.000000
     2  F   -0.000000
 Sum of Mulliken charges =  -0.00000
 Mulliken charges with hydrogens summed into heavy atoms:
               1
     1  F    0.000000
     2  F   -0.000000
 Electronic spatial extent (au):  <R**2>=             51.6522
 Charge=             -0.0000 electrons
 Dipole moment (field-independent basis, Debye):
    X=             -0.0000    Y=              0.0000    Z=              0.0000  Tot=              0.0000
 Quadrupole moment (field-independent basis, Debye-Ang):
   XX=             -9.2190   YY=             -9.2190   ZZ=            -10.0041
   XY=              0.0000   XZ=             -0.0000   YZ=              0.0000
 Traceless Quadrupole moment (field-independent basis, Debye-Ang):
   XX=              0.2617   YY=              0.2617   ZZ=             -0.5234
   XY=              0.0000   XZ=             -0.0000   YZ=              0.0000
 Octapole moment (field-independent basis, Debye-Ang**2):
  XXX=             -0.0000  YYY=              0.0000  ZZZ=            -14.6198  XYY=             -0.0000
  XXY=              0.0000  XXZ=             -4.4908  XZZ=             -0.0000  YZZ=              0.0000
  YYZ=             -4.4908  XYZ=              0.0000
 Hexadecapole moment (field-independent basis, Debye-Ang**3):
 XXXX=             -5.5498 YYYY=             -5.5498 ZZZZ=            -32.8780 XXXY=              0.0000
 XXXZ=             -0.0000 YYYX=              0.0000 YYYZ=              0.0000 ZZZX=             -0.0000
 ZZZY=             -0.0000 XXYY=             -1.8499 XXZZ=             -6.7567 YYZZ=             -6.7567
 XXYZ=              0.0000 YYXZ=             -0.0000 ZZXY=              0.0000
 N-N= 4.399590051521D+01 E-N=-5.652944035501D+02  KE= 2.011463994628D+02
 Variable Step   Value    
 -------- ---- -----------
     1       9    1.859978
 ---------------------------------------------------------------------------------------------------
                            Z-MATRIX (ANGSTROMS AND DEGREES)
   CD    Cent   Atom    N1       Length/X        N2       Alpha/Y        N3        Beta/Z          J
 ---------------------------------------------------------------------------------------------------
      1      1  F 
      2      2  F        1   0.984258(     1)
 ---------------------------------------------------------------------------------------------------
                         Z-Matrix orientation:                         
 ---------------------------------------------------------------------
 Center     Atomic      Atomic             Coordinates (Angstroms)
 Number     Number       Type             X           Y           Z
 ---------------------------------------------------------------------
      1          9           0        0.000000    0.000000    0.000000
      2          9           0        0.000000    0.000000    0.984258
 ---------------------------------------------------------------------
 Symmetry turned off by external request.
 Stoichiometry    F2
 Framework group  D*H[C*(F.F)]
 Deg. of freedom     1
 Full point group                 D*H     NOp   8
 Rotational constants (GHZ):           0.0000000          54.9176907          54.9176907
 Standard basis: 6-311++G(3df,3pd) (5D, 7F)
    78 basis functions,   116 primitive gaussians,    90 cartesian basis functions
     9 alpha electrons        9 beta electrons
       nuclear repulsion energy        43.5489048643 Hartrees.
 NAtoms=    2 NActive=    2 NUniq=    2 SFac= 1.00D+00 NAtFMM=   60 NAOKFM=F Big=F
 Integral buffers will be    131072 words long.
 Raffenetti 2 integral format.
 Two-electron integral symmetry is turned off.
 One-electron integrals computed using PRISM.
 NBasis=    78 RedAO= T EigKep=  4.03D-04  NBF=    78
 NBsUse=    78 1.00D-06 EigRej= -1.00D+00 NBFU=    78
 Initial guess from the checkpoint file:  "f2_freq.chk"
 B after Tr=     0.000000    0.000000    0.009449
         Rot=    1.000000    0.000000    0.000000    0.000000 Ang=   0.00 deg.
 ExpMin= 1.08D-01 ExpMax= 1.14D+04 ExpMxC= 1.72D+03 IAcc=2 IRadAn=         4 AccDes= 0.00D+00
 Harris functional with IExCor=  402 and IRadAn=       4 diagonalized for initial guess.
 HarFok:  IExCor=  402 AccDes= 0.00D+00 IRadAn=         4 IDoV= 1 UseB2=F ITyADJ=14
 ICtDFT=  3500011 ScaDFX=  1.000000  1.000000  1.000000  1.000000
 FoFCou: FMM=F IPFlag=           0 FMFlag=      100000 FMFlg1=           0
         NFxFlg=           0 DoJE=T BraDBF=F KetDBF=T FulRan=T
         wScrn=  0.000000 ICntrl=       500 IOpCl=  0 I1Cent=   200000004 NGrid=           0
         NMat0=    1 NMatS0=      1 NMatT0=    0 NMatD0=    1 NMtDS0=    0 NMtDT0=    0
 Symmetry not used in FoFCou.
 Keep R1 ints in memory in canonical form, NReq=6702723.
 Requested convergence on RMS density matrix=1.00D-08 within 128 cycles.
 Requested convergence on MAX density matrix=1.00D-06.
 Requested convergence on             energy=1.00D-06.
 No special actions if energy rises.
 Integral accuracy reduced to 1.0D-05 until final iterations.
 Initial convergence to 1.0D-05 achieved.  Increase integral accuracy.
 SCF Done:  E(RB3LYP) =  -199.275996518     A.U. after    7 cycles
            NFock=  7  Conv=0.42D-08     -V/T= 1.9912

 **********************************************************************

            Population analysis using the SCF density.

 **********************************************************************

 Alpha  occ. eigenvalues --  -24.76680 -24.76636  -1.77227  -0.97172  -0.72527
 Alpha  occ. eigenvalues --   -0.72527  -0.70566  -0.29660  -0.29660
 Alpha virt. eigenvalues --    0.11020   0.12659   0.16371   0.16371   0.24711
 Alpha virt. eigenvalues --    0.26782   0.26782   0.42527   0.47872   0.84677
 Alpha virt. eigenvalues --    0.84677   0.98851   1.05072   1.10970   1.10970
 Alpha virt. eigenvalues --    1.22897   1.22897   1.28561   1.28561   1.30080
 Alpha virt. eigenvalues --    1.30080   1.30181   1.72602   1.84771   1.84771
 Alpha virt. eigenvalues --    2.37067   2.64404   3.78428   3.78428   4.18383
 Alpha virt. eigenvalues --    4.21463   4.21463   4.57518   4.57518   5.10845
 Alpha virt. eigenvalues --    5.10845   5.64949   5.91613   5.91613   6.01364
 Alpha virt. eigenvalues --    6.01364   6.14873   6.26904   6.26904   6.29978
 Alpha virt. eigenvalues --    6.29978   6.76016   6.76016   6.89846   6.89846
 Alpha virt. eigenvalues --    7.12097   7.71131   7.71131   7.95044   9.38860
 Alpha virt. eigenvalues --    9.38860  10.55523  18.99816  18.99816  19.06016
 Alpha virt. eigenvalues --   19.06016  19.28555  19.28555  19.78314  20.29651
 Alpha virt. eigenvalues --   20.29651  20.59245  66.89519  67.67832
          Condensed to atoms (all electrons):
               1          2
     1  F    9.812500  -0.812500
     2  F   -0.812500   9.812500
 Mulliken charges:
               1
     1  F    0.000000
     2  F   -0.000000
 Sum of Mulliken charges =  -0.00000
 Mulliken charges with hydrogens summed into heavy atoms:
               1
     1  F    0.000000
     2  F   -0.000000
 Electronic spatial extent (au):  <R**2>=             52.2773
 Charge=             -0.0000 electrons
 Dipole moment (field-independent basis, Debye):
    X=              0.0000    Y=             -0.0000    Z=             -0.0000  Tot=              0.0000
 Quadrupole moment (field-independent basis, Debye-Ang):
   XX=             -9.2323   YY=             -9.2323   ZZ=             -9.9716
   XY=              0.0000   XZ=              0.0000   YZ=             -0.0000
 Traceless Quadrupole moment (field-independent basis, Debye-Ang):
   XX=              0.2464   YY=              0.2464   ZZ=             -0.4928
   XY=              0.0000   XZ=              0.0000   YZ=             -0.0000
 Octapole moment (field-independent basis, Debye-Ang**2):
  XXX=              0.0000  YYY=             -0.0000  ZZZ=            -14.7219  XYY=              0.0000
  XXY=             -0.0000  XXZ=             -4.5435  XZZ=              0.0000  YZZ=             -0.0000
  YYZ=             -4.5435  XYZ=              0.0000
 Hexadecapole moment (field-independent basis, Debye-Ang**3):
 XXXX=             -5.5528 YYYY=             -5.5528 ZZZZ=            -33.3097 XXXY=              0.0000
 XXXZ=              0.0000 YYYX=              0.0000 YYYZ=             -0.0000 ZZZX=              0.0000
 ZZZY=             -0.0000 XXYY=             -1.8509 XXZZ=             -6.8346 YYZZ=             -6.8346
 XXYZ=             -0.0000 YYXZ=              0.0000 ZZXY=              0.0000
 N-N= 4.354890486430D+01 E-N=-5.643965054964D+02  KE= 2.010463280966D+02
 Variable Step   Value    
 -------- ---- -----------
     1      10    1.878875
 ---------------------------------------------------------------------------------------------------
                            Z-MATRIX (ANGSTROMS AND DEGREES)
   CD    Cent   Atom    N1       Length/X        N2       Alpha/Y        N3        Beta/Z          J
 ---------------------------------------------------------------------------------------------------
      1      1  F 
      2      2  F        1   0.994258(     1)
 ---------------------------------------------------------------------------------------------------
                         Z-Matrix orientation:                         
 ---------------------------------------------------------------------
 Center     Atomic      Atomic             Coordinates (Angstroms)
 Number     Number       Type             X           Y           Z
 ---------------------------------------------------------------------
      1          9           0        0.000000    0.000000    0.000000
      2          9           0        0.000000    0.000000    0.994258
 ---------------------------------------------------------------------
 Symmetry turned off by external request.
 Stoichiometry    F2
 Framework group  D*H[C*(F.F)]
 Deg. of freedom     1
 Full point group                 D*H     NOp   8
 Rotational constants (GHZ):           0.0000000          53.8185490          53.8185490
 Standard basis: 6-311++G(3df,3pd) (5D, 7F)
    78 basis functions,   116 primitive gaussians,    90 cartesian basis functions
     9 alpha electrons        9 beta electrons
       nuclear repulsion energy        43.1109007566 Hartrees.
 NAtoms=    2 NActive=    2 NUniq=    2 SFac= 1.00D+00 NAtFMM=   60 NAOKFM=F Big=F
 Integral buffers will be    131072 words long.
 Raffenetti 2 integral format.
 Two-electron integral symmetry is turned off.
 One-electron integrals computed using PRISM.
 NBasis=    78 RedAO= T EigKep=  4.25D-04  NBF=    78
 NBsUse=    78 1.00D-06 EigRej= -1.00D+00 NBFU=    78
 Initial guess from the checkpoint file:  "f2_freq.chk"
 B after Tr=     0.000000    0.000000    0.009449
         Rot=    1.000000    0.000000    0.000000    0.000000 Ang=   0.00 deg.
 ExpMin= 1.08D-01 ExpMax= 1.14D+04 ExpMxC= 1.72D+03 IAcc=2 IRadAn=         4 AccDes= 0.00D+00
 Harris functional with IExCor=  402 and IRadAn=       4 diagonalized for initial guess.
 HarFok:  IExCor=  402 AccDes= 0.00D+00 IRadAn=         4 IDoV= 1 UseB2=F ITyADJ=14
 ICtDFT=  3500011 ScaDFX=  1.000000  1.000000  1.000000  1.000000
 FoFCou: FMM=F IPFlag=           0 FMFlag=      100000 FMFlg1=           0
         NFxFlg=           0 DoJE=T BraDBF=F KetDBF=T FulRan=T
         wScrn=  0.000000 ICntrl=       500 IOpCl=  0 I1Cent=   200000004 NGrid=           0
         NMat0=    1 NMatS0=      1 NMatT0=    0 NMatD0=    1 NMtDS0=    0 NMtDT0=    0
 Symmetry not used in FoFCou.
 Keep R1 ints in memory in canonical form, NReq=6702693.
 Requested convergence on RMS density matrix=1.00D-08 within 128 cycles.
 Requested convergence on MAX density matrix=1.00D-06.
 Requested convergence on             energy=1.00D-06.
 No special actions if energy rises.
 Integral accuracy reduced to 1.0D-05 until final iterations.
 Initial convergence to 1.0D-05 achieved.  Increase integral accuracy.
 SCF Done:  E(RB3LYP) =  -199.298488195     A.U. after    7 cycles
            NFock=  7  Conv=0.49D-08     -V/T= 1.9918

 **********************************************************************

            Population analysis using the SCF density.

 **********************************************************************

 Alpha  occ. eigenvalues --  -24.76716 -24.76676  -1.75627  -0.97564  -0.71788
 Alpha  occ. eigenvalues --   -0.71788  -0.70303  -0.30145  -0.30145
 Alpha virt. eigenvalues --    0.11023   0.12550   0.16442   0.16442   0.24722
 Alpha virt. eigenvalues --    0.26755   0.26755   0.42263   0.45845   0.84810
 Alpha virt. eigenvalues --    0.84810   0.98898   1.05415   1.11097   1.11097
 Alpha virt. eigenvalues --    1.22383   1.22383   1.28533   1.28533   1.29802
 Alpha virt. eigenvalues --    1.29802   1.30677   1.71381   1.84411   1.84411
 Alpha virt. eigenvalues --    2.36032   2.65523   3.78985   3.78985   4.16494
 Alpha virt. eigenvalues --    4.22791   4.22791   4.57044   4.57044   5.08608
 Alpha virt. eigenvalues --    5.08608   5.61947   5.91524   5.91525   6.00720
 Alpha virt. eigenvalues --    6.00720   6.15393   6.26859   6.26859   6.31200
 Alpha virt. eigenvalues --    6.31200   6.75130   6.75130   6.86770   6.86770
 Alpha virt. eigenvalues --    7.07765   7.67608   7.67608   7.89522   9.32509
 Alpha virt. eigenvalues --    9.32509  10.57523  18.98964  18.98964  19.06352
 Alpha virt. eigenvalues --   19.06352  19.27982  19.27982  19.70191  20.25021
 Alpha virt. eigenvalues --   20.25021  20.68672  66.88845  67.56236
          Condensed to atoms (all electrons):
               1          2
     1  F    9.770248  -0.770248
     2  F   -0.770248   9.770248
 Mulliken charges:
               1
     1  F    0.000000
     2  F   -0.000000
 Sum of Mulliken charges =  -0.00000
 Mulliken charges with hydrogens summed into heavy atoms:
               1
     1  F    0.000000
     2  F   -0.000000
 Electronic spatial extent (au):  <R**2>=             52.9096
 Charge=              0.0000 electrons
 Dipole moment (field-independent basis, Debye):
    X=              0.0000    Y=             -0.0000    Z=             -0.0000  Tot=              0.0000
 Quadrupole moment (field-independent basis, Debye-Ang):
   XX=             -9.2459   YY=             -9.2459   ZZ=             -9.9396
   XY=              0.0000   XZ=              0.0000   YZ=             -0.0000
 Traceless Quadrupole moment (field-independent basis, Debye-Ang):
   XX=              0.2312   YY=              0.2312   ZZ=             -0.4624
   XY=              0.0000   XZ=              0.0000   YZ=             -0.0000
 Octapole moment (field-independent basis, Debye-Ang**2):
  XXX=              0.0000  YYY=             -0.0000  ZZZ=            -14.8238  XYY=              0.0000
  XXY=             -0.0000  XXZ=             -4.5964  XZZ=              0.0000  YZZ=             -0.0000
  YYZ=             -4.5964  XYZ=              0.0000
 Hexadecapole moment (field-independent basis, Debye-Ang**3):
 XXXX=             -5.5572 YYYY=             -5.5572 ZZZZ=            -33.7480 XXXY=              0.0000
 XXXZ=              0.0000 YYYX=              0.0000 YYYZ=             -0.0000 ZZZX=              0.0000
 ZZZY=             -0.0000 XXYY=             -1.8524 XXZZ=             -6.9147 YYZZ=             -6.9147
 XXYZ=             -0.0000 YYXZ=              0.0000 ZZXY=              0.0000
 N-N= 4.311090075665D+01 E-N=-5.635156390067D+02  KE= 2.009503864283D+02
 Variable Step   Value    
 -------- ---- -----------
     1      11    1.897772
 ---------------------------------------------------------------------------------------------------
                            Z-MATRIX (ANGSTROMS AND DEGREES)
   CD    Cent   Atom    N1       Length/X        N2       Alpha/Y        N3        Beta/Z          J
 ---------------------------------------------------------------------------------------------------
      1      1  F 
      2      2  F        1   1.004258(     1)
 ---------------------------------------------------------------------------------------------------
                         Z-Matrix orientation:                         
[...]
 FoFCou: FMM=F IPFlag=           0 FMFlag=      100000 FMFlg1=           0
         NFxFlg=           0 DoJE=T BraDBF=F KetDBF=T FulRan=T
         wScrn=  0.000000 ICntrl=       500 IOpCl=  0 I1Cent=   200000004 NGrid=           0
         NMat0=    1 NMatS0=      1 NMatT0=    0 NMatD0=    1 NMtDS0=    0 NMtDT0=    0
 Symmetry not used in FoFCou.
 Keep R1 ints in memory in canonical form, NReq=6701800.
 Requested convergence on RMS density matrix=1.00D-08 within 128 cycles.
 Requested convergence on MAX density matrix=1.00D-06.
 Requested convergence on             energy=1.00D-06.
 No special actions if energy rises.
 Integral accuracy reduced to 1.0D-05 until final iterations.
 Initial convergence to 1.0D-05 achieved.  Increase integral accuracy.
 SCF Done:  E(RB3LYP) =  -199.446715741     A.U. after    7 cycles
            NFock=  7  Conv=0.16D-08     -V/T= 2.0035

 **********************************************************************

            Population analysis using the SCF density.

 **********************************************************************

 Alpha  occ. eigenvalues --  -24.81093 -24.81093  -1.22220  -1.20859  -0.49442
 Alpha  occ. eigenvalues --   -0.49201  -0.49201  -0.48105  -0.48105
 Alpha virt. eigenvalues --   -0.39559   0.09712   0.13724   0.16628   0.16628
 Alpha virt. eigenvalues --    0.23827   0.23855   0.23855   0.36613   0.82391
 Alpha virt. eigenvalues --    0.91276   0.91276   1.01102   1.01102   1.05103
 Alpha virt. eigenvalues --    1.05103   1.17101   1.17101   1.19718   1.19718
 Alpha virt. eigenvalues --    1.20295   1.21736   1.24740   1.24740   1.51370
 Alpha virt. eigenvalues --    1.54976   1.68375   4.35195   4.35195   4.39733
 Alpha virt. eigenvalues --    4.43229   4.43231   4.45790   4.45792   4.52071
 Alpha virt. eigenvalues --    4.52071   4.72639   6.08833   6.12981   6.12981
 Alpha virt. eigenvalues --    6.17908   6.17908   6.28366   6.52932   6.52932
 Alpha virt. eigenvalues --    6.53125   6.53215   6.53215   6.54439   6.54444
 Alpha virt. eigenvalues --    6.54444   6.54449   6.57374   6.57374   6.57374
 Alpha virt. eigenvalues --    6.57374   6.59729  19.07605  19.07605  19.09466
 Alpha virt. eigenvalues --   19.12687  19.12688  19.13974  19.13975  19.16671
 Alpha virt. eigenvalues --   19.16671  19.29974  66.53224  66.56250
          Condensed to atoms (all electrons):
               1          2
     1  F    8.926889   0.073111
     2  F    0.073111   8.926889
 Mulliken charges:
               1
     1  F    0.000000
     2  F   -0.000000
 Sum of Mulliken charges =  -0.00000
 Mulliken charges with hydrogens summed into heavy atoms:
               1
     1  F    0.000000
     2  F   -0.000000
 Electronic spatial extent (au):  <R**2>=            203.5873
 Charge=             -0.0000 electrons
 Dipole moment (field-independent basis, Debye):
    X=             -0.0000    Y=             -0.0000    Z=             -0.0000  Tot=              0.0000
 Quadrupole moment (field-independent basis, Debye-Ang):
   XX=            -10.0921   YY=            -10.0921   ZZ=             -7.9054
   XY=             -0.0000   XZ=              0.0000   YZ=              0.0000
 Traceless Quadrupole moment (field-independent basis, Debye-Ang):
   XX=             -0.7289   YY=             -0.7289   ZZ=              1.4578
   XY=             -0.0000   XZ=              0.0000   YZ=              0.0000
 Octapole moment (field-independent basis, Debye-Ang**2):
  XXX=             -0.0000  YYY=              0.0000  ZZZ=            -28.2727  XYY=             -0.0000
  XXY=              0.0000  XXZ=            -12.0311  XZZ=              0.0000  YZZ=              0.0000
  YYZ=            -12.0311  XYZ=             -0.0000
 Hexadecapole moment (field-independent basis, Debye-Ang**3):
 XXXX=             -6.6083 YYYY=             -6.6083 ZZZZ=           -142.4843 XXXY=             -0.0000
 XXXZ=              0.0000 YYYX=             -0.0000 YYYZ=              0.0000 ZZZX=              0.0000
 ZZZY=              0.0000 XXYY=             -2.2028 XXZZ=            -30.4292 YYZZ=            -30.4292
 XXYZ=             -0.0000 YYXZ=             -0.0000 ZZXY=             -0.0000
 N-N= 1.797764994498D+01 E-N=-5.126532595276D+02  KE= 1.987450681994D+02
 Variable Step   Value    
 -------- ---- -----------
     1     150    4.524492
 ---------------------------------------------------------------------------------------------------
                            Z-MATRIX (ANGSTROMS AND DEGREES)
   CD    Cent   Atom    N1       Length/X        N2       Alpha/Y        N3        Beta/Z          J
 ---------------------------------------------------------------------------------------------------
      1      1  F 
      2      2  F        1   2.394258(     1)
 ---------------------------------------------------------------------------------------------------
                         Z-Matrix orientation:                         
 ---------------------------------------------------------------------
 Center     Atomic      Atomic             Coordinates (Angstroms)
 Number     Number       Type             X           Y           Z
 ---------------------------------------------------------------------
      1          9           0        0.000000    0.000000    0.000000
      2          9           0        0.000000    0.000000    2.394258
 ---------------------------------------------------------------------
 Symmetry turned off by external request.
 Stoichiometry    F2
 Framework group  D*H[C*(F.F)]
 Deg. of freedom     1
 Full point group                 D*H     NOp   8
 Rotational constants (GHZ):           0.0000000           9.2808602           9.2808602
 Standard basis: 6-311++G(3df,3pd) (5D, 7F)
    78 basis functions,   116 primitive gaussians,    90 cartesian basis functions
     9 alpha electrons        9 beta electrons
       nuclear repulsion energy        17.9025634229 Hartrees.
 NAtoms=    2 NActive=    2 NUniq=    2 SFac= 1.00D+00 NAtFMM=   60 NAOKFM=F Big=F
 Integral buffers will be    131072 words long.
 Raffenetti 2 integral format.
 Two-electron integral symmetry is turned off.
 One-electron integrals computed using PRISM.
 NBasis=    78 RedAO= T EigKep=  2.65D-02  NBF=    78
 NBsUse=    78 1.00D-06 EigRej= -1.00D+00 NBFU=    78
 Initial guess from the checkpoint file:  "f2_freq.chk"
 B after Tr=     0.000000    0.000000    0.009449
         Rot=    1.000000    0.000000    0.000000    0.000000 Ang=   0.00 deg.
 ExpMin= 1.08D-01 ExpMax= 1.14D+04 ExpMxC= 1.72D+03 IAcc=2 IRadAn=         4 AccDes= 0.00D+00
 Harris functional with IExCor=  402 and IRadAn=       4 diagonalized for initial guess.
 HarFok:  IExCor=  402 AccDes= 0.00D+00 IRadAn=         4 IDoV= 1 UseB2=F ITyADJ=14
 ICtDFT=  3500011 ScaDFX=  1.000000  1.000000  1.000000  1.000000
 FoFCou: FMM=F IPFlag=           0 FMFlag=      100000 FMFlg1=           0
         NFxFlg=           0 DoJE=T BraDBF=F KetDBF=T FulRan=T
         wScrn=  0.000000 ICntrl=       500 IOpCl=  0 I1Cent=   200000004 NGrid=           0
         NMat0=    1 NMatS0=      1 NMatT0=    0 NMatD0=    1 NMtDS0=    0 NMtDT0=    0
 Symmetry not used in FoFCou.
 Keep R1 ints in memory in canonical form, NReq=6701800.
 Requested convergence on RMS density matrix=1.00D-08 within 128 cycles.
 Requested convergence on MAX density matrix=1.00D-06.
 Requested convergence on             energy=1.00D-06.
 No special actions if energy rises.
 Integral accuracy reduced to 1.0D-05 until final iterations.
 Initial convergence to 1.0D-05 achieved.  Increase integral accuracy.
 SCF Done:  E(RB3LYP) =  -199.445777866     A.U. after    7 cycles
            NFock=  7  Conv=0.17D-08     -V/T= 2.0035

 **********************************************************************

            Population analysis using the SCF density.

 **********************************************************************

 Alpha  occ. eigenvalues --  -24.81083 -24.81082  -1.22196  -1.20873  -0.49382
 Alpha  occ. eigenvalues --   -0.49184  -0.49184  -0.48114  -0.48114
 Alpha virt. eigenvalues --   -0.39618   0.09696   0.13715   0.16617   0.16617
 Alpha virt. eigenvalues --    0.23777   0.23838   0.23838   0.36569   0.82305
 Alpha virt. eigenvalues --    0.91447   0.91447   1.01158   1.01158   1.05046
 Alpha virt. eigenvalues --    1.05046   1.16810   1.16810   1.19755   1.19755
 Alpha virt. eigenvalues --    1.20315   1.21736   1.24672   1.24672   1.51393
 Alpha virt. eigenvalues --    1.54809   1.67492   4.35260   4.35260   4.39408
 Alpha virt. eigenvalues --    4.43267   4.43269   4.45755   4.45757   4.51870
 Alpha virt. eigenvalues --    4.51870   4.72393   6.08722   6.13021   6.13021
 Alpha virt. eigenvalues --    6.17866   6.17866   6.28335   6.52932   6.52932
 Alpha virt. eigenvalues --    6.53092   6.53196   6.53196   6.54442   6.54446
 Alpha virt. eigenvalues --    6.54447   6.54451   6.57376   6.57376   6.57376
 Alpha virt. eigenvalues --    6.57376   6.59258  19.07655  19.07655  19.09315
 Alpha virt. eigenvalues --   19.12713  19.12713  19.13960  19.13961  19.16558
 Alpha virt. eigenvalues --   19.16558  19.29750  66.53252  66.56204
          Condensed to atoms (all electrons):
               1          2
     1  F    8.927830   0.072170
     2  F    0.072170   8.927830
 Mulliken charges:
               1
     1  F   -0.000000
     2  F    0.000000
 Sum of Mulliken charges =  -0.00000
 Mulliken charges with hydrogens summed into heavy atoms:
               1
     1  F   -0.000000
     2  F    0.000000
 Electronic spatial extent (au):  <R**2>=            205.1234
 Charge=             -0.0000 electrons
 Dipole moment (field-independent basis, Debye):
    X=              0.0000    Y=             -0.0000    Z=              0.0000  Tot=              0.0000
 Quadrupole moment (field-independent basis, Debye-Ang):
   XX=            -10.0930   YY=            -10.0930   ZZ=             -7.9040
   XY=              0.0000   XZ=              0.0000   YZ=              0.0000
 Traceless Quadrupole moment (field-independent basis, Debye-Ang):
   XX=             -0.7297   YY=             -0.7297   ZZ=              1.4593
   XY=              0.0000   XZ=              0.0000   YZ=              0.0000
 Octapole moment (field-independent basis, Debye-Ang**2):
  XXX=              0.0000  YYY=             -0.0000  ZZZ=            -28.3863  XYY=              0.0000
  XXY=             -0.0000  XXZ=            -12.0826  XZZ=              0.0000  YZZ=              0.0000
  YYZ=            -12.0826  XYZ=              0.0000
 Hexadecapole moment (field-independent basis, Debye-Ang**3):
 XXXX=             -6.6104 YYYY=             -6.6104 ZZZZ=           -143.6391 XXXY=              0.0000
 XXXZ=              0.0000 YYYX=              0.0000 YYYZ=              0.0000 ZZZX=              0.0000
 ZZZY=              0.0000 XXYY=             -2.2035 XXZZ=            -30.6726 YYZZ=            -30.6726
 XXYZ=             -0.0000 YYXZ=              0.0000 ZZXY=              0.0000
 N-N= 1.790256342289D+01 E-N=-5.125049747683D+02  KE= 1.987466548734D+02
 Scan completed.
 
 Summary of the potential surface scan:
   N      B1          SCF    
 ----  ---------  -----------
    1     0.8943   -198.99438
    2     0.9043   -199.03410
    3     0.9143   -199.07140
    4     0.9243   -199.10644
    5     0.9343   -199.13934
    6     0.9443   -199.17023
    7     0.9543   -199.19924
    8     0.9643   -199.22647
    9     0.9743   -199.25202
   10     0.9843   -199.27600
   11     0.9943   -199.29849
   12     1.0043   -199.31958
   13     1.0143   -199.33936
   14     1.0243   -199.35789
   15     1.0343   -199.37525
   16     1.0443   -199.39152
   17     1.0543   -199.40674
   18     1.0643   -199.42097
   19     1.0743   -199.43429
   20     1.0843   -199.44673
   21     1.0943   -199.45834
   22     1.1043   -199.46918
   23     1.1143   -199.47928
   24     1.1243   -199.48869
   25     1.1343   -199.49744
   26     1.1443   -199.50558
   27     1.1543   -199.51313
   28     1.1643   -199.52012
   29     1.1743   -199.52660
   30     1.1843   -199.53258
   31     1.1943   -199.53809
   32     1.2043   -199.54316
   33     1.2143   -199.54782
   34     1.2243   -199.55208
   35     1.2343   -199.55596
   36     1.2443   -199.55949
   37     1.2543   -199.56269
   38     1.2643   -199.56558
   39     1.2743   -199.56816
   40     1.2843   -199.57046
   41     1.2943   -199.57250
   42     1.3043   -199.57429
   43     1.3143   -199.57583
   44     1.3243   -199.57716
   45     1.3343   -199.57827
   46     1.3443   -199.57918
   47     1.3543   -199.57990
   48     1.3643   -199.58044
   49     1.3743   -199.58082
   50     1.3843   -199.58104
   51     1.3943   -199.58111
   52     1.4043   -199.58104
   53     1.4143   -199.58084
   54     1.4243   -199.58052
   55     1.4343   -199.58008
   56     1.4443   -199.57954
   57     1.4543   -199.57889
   58     1.4643   -199.57815
   59     1.4743   -199.57732
   60     1.4843   -199.57640
   61     1.4943   -199.57541
   62     1.5043   -199.57435
   63     1.5143   -199.57322
   64     1.5243   -199.57203
   65     1.5343   -199.57078
   66     1.5443   -199.56948
   67     1.5543   -199.56812
   68     1.5643   -199.56673
   69     1.5743   -199.56529
   70     1.5843   -199.56381
   71     1.5943   -199.56229
   72     1.6043   -199.56075
   73     1.6143   -199.55917
   74     1.6243   -199.55757
   75     1.6343   -199.55594
   76     1.6443   -199.55430
   77     1.6543   -199.55263
   78     1.6643   -199.55094
   79     1.6743   -199.54925
   80     1.6843   -199.54753
   81     1.6943   -199.54581
   82     1.7043   -199.54408
   83     1.7143   -199.54233
   84     1.7243   -199.54059
   85     1.7343   -199.53884
   86     1.7443   -199.53708
   87     1.7543   -199.53532
   88     1.7643   -199.53357
   89     1.7743   -199.53181
   90     1.7843   -199.53005
   91     1.7943   -199.52830
   92     1.8043   -199.52655
   93     1.8143   -199.52481
   94     1.8243   -199.52307
   95     1.8343   -199.52134
   96     1.8443   -199.51962
   97     1.8543   -199.51790
   98     1.8643   -199.51619
   99     1.8743   -199.51449
  100     1.8843   -199.51281
  101     1.8943   -199.51113
  102     1.9043   -199.50946
  103     1.9143   -199.50781
  104     1.9243   -199.50617
  105     1.9343   -199.50454
  106     1.9443   -199.50292
  107     1.9543   -199.50132
  108     1.9643   -199.49973
  109     1.9743   -199.49815
  110     1.9843   -199.49659
  111     1.9943   -199.49504
  112     2.0043   -199.49351
  113     2.0143   -199.49199
  114     2.0243   -199.49049
  115     2.0343   -199.48900
  116     2.0443   -199.48753
  117     2.0543   -199.48607
  118     2.0643   -199.48463
  119     2.0743   -199.48320
  120     2.0843   -199.48179
  121     2.0943   -199.48040
  122     2.1043   -199.47902
  123     2.1143   -199.47765
  124     2.1243   -199.47631
  125     2.1343   -199.47497
  126     2.1443   -199.47366
  127     2.1543   -199.47236
  128     2.1643   -199.47107
  129     2.1743   -199.46981
  130     2.1843   -199.46855
  131     2.1943   -199.46732
  132     2.2043   -199.46610
  133     2.2143   -199.46489
  134     2.2243   -199.46370
  135     2.2343   -199.46253
  136     2.2443   -199.46137
  137     2.2543   -199.46022
  138     2.2643   -199.45909
  139     2.2743   -199.45798
  140     2.2843   -199.45688
  141     2.2943   -199.45580
  142     2.3043   -199.45473
  143     2.3143   -199.45368
  144     2.3243   -199.45264
  145     2.3343   -199.45162
  146     2.3443   -199.45061
  147     2.3543   -199.44961
  148     2.3643   -199.44863
  149     2.3743   -199.44767
  150     2.3843   -199.44672
  151     2.3943   -199.44578
 ----  ---------  -----------
  
 1\1\GINC-AQ89\Scan\RB3LYP\6-311++G(3df,3pd)\F2\PRAKTIKUM\04-Nov-2024\1
 \\# B3LYP/6-311++G(3df,3pd) SCAN SCF=VERYTIGHT INT=ULTRAFINE # GEOM=NO
 CROWD NOSYMM POP=ALWAYS\\F2 Bond Scan\\0,1\F\F,1,B1\\B1=0.89425791,s,1
 50,0.01\\Version=AS64L-G16RevA.03\HF=-198.9943798,-199.0340955,-199.07
 14,-199.1064365,-199.1393391,-199.1702342,-199.1992398,-199.2264671,-1
 99.2520201,-199.2759965,-199.2984882,-199.3195813,-199.3393569,-199.35
 78908,-199.3752546,-199.3915151,-199.4067352,-199.4209741,-199.4342872
 ,-199.4467269,-199.4583423,-199.4691796,-199.4792822,-199.488691,-199.
 4974445,-199.5055789,-199.5131282,-199.5201246,-199.5265985,-199.53257
 83,-199.5380911,-199.5431624,-199.5478163,-199.5520754,-199.5559611,-1
 99.5594939,-199.5626928,-199.5655762,-199.5681612,-199.5704642,-199.57
 25007,-199.5742855,-199.5758326,-199.5771551,-199.5782658,-199.5791766
 ,-199.5798988,-199.5804433,-199.5808203,-199.5810398,-199.5811109,-199
 .5810427,-199.5808434,-199.5805211,-199.5800834,-199.5795375,-199.5788
 903,-199.5781483,-199.5773176,-199.5764041,-199.5754134,-199.5743508,-
 199.5732212,-199.5720295,-199.57078,-199.5694772,-199.5681249,-199.566
 727,-199.5652872,-199.5638087,-199.5622949,-199.5607488,-199.5591732,-
 199.557571,-199.5559446,-199.5542966,-199.5526292,-199.5509447,-199.54
 92452,-199.5475325,-199.5458087,-199.5440754,-199.5423343,-199.5405871
 ,-199.5388352,-199.5370801,-199.5353232,-199.5335656,-199.5318087,-199
 .5300535,-199.5283011,-199.5265527,-199.524809,-199.523071,-199.521339
 6,-199.5196155,-199.5178995,-199.5161922,-199.5144944,-199.5128066,-19
 9.5111295,-199.5094635,-199.5078092,-199.506167,-199.5045373,-199.5029
 205,-199.501317,-199.499727,-199.498151,-199.4965891,-199.4950415,-199
 .4935086,-199.4919905,-199.4904873,-199.4889992,-199.4875264,-199.4860
 691,-199.4846272,-199.4832009,-199.4817903,-199.4803954,-199.4790164,-
 199.4776531,-199.4763057,-199.4749741,-199.4736584,-199.4723586,-199.4
 710745,-199.4698062,-199.4685536,-199.4673168,-199.4660956,-199.46489,
 -199.4636999,-199.4625254,-199.4613663,-199.4602226,-199.4590942,-199.
 457981,-199.456883,-199.4558001,-199.4547321,-199.4536791,-199.4526408
 ,-199.4516173,-199.4506083,-199.4496137,-199.4486336,-199.4476676,-199
 .4467157,-199.4457779\RMSD=4.321e-09,9.141e-09,6.596e-09,4.349e-09,2.6
 57e-09,1.275e-09,1.567e-09,2.521e-09,3.385e-09,4.164e-09,4.860e-09,5.4
 69e-09,6.014e-09,6.479e-09,6.880e-09,7.221e-09,7.500e-09,7.715e-09,7.9
 01e-09,7.960e-09,7.927e-09,7.808e-09,7.593e-09,7.396e-09,7.173e-09,6.9
 88e-09,6.866e-09,6.817e-09,6.835e-09,6.908e-09,7.016e-09,7.138e-09,7.2
 55e-09,7.354e-09,7.431e-09,7.491e-09,7.537e-09,7.579e-09,7.622e-09,7.6
 81e-09,8.109e-09,7.541e-09,8.211e-09,8.200e-09,8.370e-09,8.724e-09,8.6
 69e-09,3.298e-10,5.587e-10,1.055e-09,6.590e-10,9.830e-10,4.228e-09,9.0
 86e-10,1.350e-09,3.877e-09,1.184e-09,1.708e-09,7.056e-09,1.485e-09,2.1
 10e-09,7.793e-09,1.815e-09,2.523e-09,7.796e-09,2.116e-09,2.855e-09,3.5
 65e-09,2.306e-09,2.999e-09,3.247e-09,4.111e-09,2.222e-09,2.717e-09,5.1
 74e-09,1.844e-09,2.114e-09,1.527e-09,2.255e-09,1.029e-09,1.071e-09,7.7
 61e-10,2.183e-09,8.366e-10,1.412e-09,1.231e-09,1.800e-09,1.715e-09,4.5
 66e-09,2.040e-09,4.143e-09,2.360e-09,5.251e-09,2.613e-09,6.960e-09,2.8
 08e-09,9.268e-09,2.954e-09,9.056e-11,3.739e-09,3.095e-09,9.823e-09,3.1
 29e-09,7.252e-11,3.773e-09,3.108e-09,7.801e-11,3.843e-09,3.010e-09,7.3
 20e-11,3.536e-09,2.868e-09,7.775e-11,3.336e-09,2.700e-09,8.312e-11,3.1
 15e-09,2.530e-09,8.808e-11,2.873e-09,2.378e-09,9.191e-09,2.484e-09,8.8
 07e-09,1.485e-10,2.779e-09,2.075e-09,7.246e-09,4.582e-10,1.461e-09,4.7
 38e-09,4.432e-09,9.307e-09,6.227e-09,1.505e-10,2.154e-09,1.863e-09,1.4
 92e-10,2.489e-09,1.543e-09,2.700e-09,1.381e-10,1.597e-09,1.426e-09,1.3
 36e-10,1.593e-09,1.499e-09,1.310e-10,2.335e-09,1.606e-09,1.708e-09\PG=
 D*H [C*(F1.F1)]\\@


 HONESTY IN A LAWYER IS LIKE A HEN'S HIND LEGS.
  -- MAGNUS OLESON, LAKE WOBEGON PATRIARCH, C.1875
 Job cpu time:       0 days  0 hours  5 minutes 15.1 seconds.
 Elapsed time:       0 days  0 hours  5 minutes 12.7 seconds.
 File lengths (MBytes):  RWF=     10 Int=      0 D2E=      0 Chk=      3 Scr=      1
 Normal termination of Gaussian 16 at Mon Nov  4 13:30:15 2024.
