
 Working directory              : /tmp/lme/molpro.MOpfsz8f4n/
 Global scratch directory       : /tmp/lme/molpro.MOpfsz8f4n/
 Wavefunction directory         : /home/lme/wfu/
 Main file repository           : /tmp/lme/molpro.MOpfsz8f4n/

 id        : liedlgroup

 Nodes     nprocs
 sv1-c724     1
 GA implementation: MPI file
 GA implementation (serial work in mppx): MPI file

 Using customized tuning parameters: mindgm=1; mindgv=20; mindgc=4; mindgr=1; noblas=0; minvec=7
 default implementation of scratch files=df  


 Variables initialized (1042), CPU time= 0.00 sec
 
                      orient,mass
                      geometry=/home/lme/Theoretische_Chemie/Nomodeco/pymolpro_integration/water_dimer/water_dimer_isotopes/water_dimer.xyz
 Including file /home/lme/Theoretische_Chemie/Nomodeco/pymolpro_integration/water_dimer/water_dimer_isotopes/water_dimer.xyz
                      mass,H5=2.014                                              ! Set custom mass for hydrogen
                      basis=6-311g(d,p)
                      {hf
                      start, atden}
                      optg;
                      {frequencies, symm=auto, print=0, analytical}
                      put, molden, Water_Dimer.molden
 Commands initialized (847), CPU time= 0.01 sec, 718 directives.
 Default parameters read. Elapsed time= 0.06 sec

 Checking input...
 Passed
1


                                         ***  PROGRAM SYSTEM MOLPRO  ***
                                       Copyright, TTI GmbH Stuttgart, 2015
                                    Version 2024.1 linked Wed Jan 31 11:42:09 2024


 **********************************************************************************************************************************
 LABEL *                                                                                                                                                                 
  (6 PROC) 64 bit serial version                                                         DATE: 18-Sep-24          TIME: 10:52:26  
 **********************************************************************************************************************************

 SHA1:             675817fde4514a4a933b69e420913a90cee4ef91
 **********************************************************************************************************************************

 Memory per process:        32 MW
 Total memory per node:     32 MW

 GA preallocation disabled
 GA check disabled

 Variable memory set to 32.0 MW

 ZCENTRE=MASS


 Geometry recognized as XYZ


 SETTING MASS FOR H5   (Z=  1)   TO   2.014
 SETTING BASIS          =    6-311G(D,P)


 Recomputing integrals since basis changed


 Using spherical harmonics

 Library entry O      S 6-311G               selected for orbital group  1
 Library entry O      P 6-311G               selected for orbital group  1
 Library entry O      D 6-311G*              selected for orbital group  1
 Library entry H      S 6-311G               selected for orbital group  2
 Library entry H      P 6-311G**             selected for orbital group  2


 PROGRAM * SEWARD (Integral evaluation for generally contracted gaussian basis sets)     Author: Roland Lindh, 1990

 Geometry written to block  1 of record 700

 Orientation using atomic masses  
 Molecule type: Asymmetric top
 Rotational constants:       5.5189775      5.6577256    217.8124411 GHz  (calculated with average atomic masses)

 Point group  C1  



 ATOMIC COORDINATES

 NR  ATOM    CHARGE       X              Y              Z

   1  O1      8.00    0.011456159    0.064444520   -3.092972243
   2  H2      1.00   -0.171257290    1.003182216   -1.661684999
   3  H3      1.00   -0.148457117   -1.587287028   -2.635364087
   4  O4      8.00    0.035125241   -0.035123839    2.653494111
   5  H5      1.00   -0.147588209    0.903613857    4.084781355
   6  H6      1.00   -0.124788036   -1.686855387    3.111102267

 Bond lengths in Bohr (Angstrom)

 1-2  1.721393575  1-3  1.721393211  4-5  1.721393575  4-6  1.721393211
     ( 0.910922251)     ( 0.910922058)     ( 0.910922251)     ( 0.910922058)

 Bond angles

  2-1-3  107.00002446   5-4-6  107.00002446

 NUCLEAR CHARGE:                   20
 NUMBER OF PRIMITIVE AOS:          96
 NUMBER OF SYMMETRY AOS:           94
 NUMBER OF CONTRACTIONS:           60   (   60A   )
 NUMBER OF INNER CORE ORBITALS:     0   (    0A   )
 NUMBER OF OUTER CORE ORBITALS:     2   (    2A   )
 NUMBER OF VALENCE ORBITALS:       12   (   12A   )


 NUCLEAR REPULSION ENERGY   36.71638738


 Eigenvalues of metric

         1 0.147E-01 0.154E-01 0.316E-01 0.343E-01 0.742E-01 0.853E-01 0.888E-01 0.935E-01


 Contracted 2-electron integrals neglected if value below      1.0D-11
 AO integral compression algorithm  1   Integral accuracy      1.0D-11

     6.029 MB (compressed) written to integral file ( 34.9%)


 NUMBER OF SORTED TWO-ELECTRON INTEGRALS:    1675365.     BUFFER LENGTH:  32768
 NUMBER OF SEGMENTS:   1  SEGMENT LENGTH:    1675365      RECORD LENGTH: 524288

 Memory used in sort:       2.23 MW

 SORT1 READ     2065183. AND WROTE     1176033. INTEGRALS IN      4 RECORDS. CPU TIME:     0.02 SEC, REAL TIME:     0.02 SEC
 SORT2 READ     1176033. AND WROTE     1675365. INTEGRALS IN     23 RECORDS. CPU TIME:     0.05 SEC, REAL TIME:     0.06 SEC

 FILE SIZES:   FILE 1:    36.2 MBYTE,  FILE 4:    16.8 MBYTE,   TOTAL:     53.1 MBYTE

 OPERATOR DM      FOR CENTER  0  COORDINATES:    0.000000    0.000000    0.000000


 **********************************************************************************************************************************
 DATASETS  * FILE   NREC   LENGTH (MB)   RECORD NAMES
              1      19       33.06       500      610      700      900      950      970     1000      129      960     1100   
                                          VAR    BASINP    GEOM    SYMINP    ZMAT    AOBASIS   BASIS     P2S    ABASIS      S 
                                         1400     1410     1200     1210     1080     1600     1650     1300     1700   
                                           T        V       H0       H01     AOSYM     SMH    MOLCAS    ERIS     OPER   

 PROGRAMS   *        TOTAL       INT
 CPU TIMES  *         0.36      0.25
 REAL TIME  *         0.43 SEC
 DISK USED  *        51.03 MB
 **********************************************************************************************************************************


 Program * Restricted Hartree-Fock

 Orbital guess generated from atomic densities.

 Initial occupancy:  10

 NELEC=   20   SYM=1   MS2= 0   THRE=1.0D-08   THRD=1.0D-06   THRG=1.0D-06  HFMA2=F  DIIS_START=2   DIIS_MAX=10   DIIS_INCORE=F

 Level shifts:    0.00 (CLOSED)    0.00 (OPEN)    0.30 (GAP_MIN)

 ITER           ETOT              DE          GRAD        DDIFF     DIIS  NEXP   TIME(IT)  TIME(TOT)  DIAG
   1     -152.02452425    -152.02452425     0.00D+00     0.62D-01     0     0       0.01      0.03    start
   2     -152.07948999      -0.05496575     0.14D-01     0.97D-02     1     0       0.01      0.04    diag
   3     -152.09484053      -0.01535053     0.72D-02     0.31D-02     2     0       0.02      0.06    diag
   4     -152.09518536      -0.00034484     0.76D-03     0.67D-03     3     0       0.01      0.07    diag
   5     -152.09520964      -0.00002428     0.18D-03     0.24D-03     4     0       0.01      0.08    diag
   6     -152.09521049      -0.00000084     0.29D-04     0.45D-04     5     0       0.01      0.09    diag
   7     -152.09521051      -0.00000003     0.68D-05     0.57D-05     6     0       0.01      0.10    diag
   8     -152.09521052      -0.00000000     0.27D-05     0.23D-05     7     0       0.01      0.11    fixocc
   9     -152.09521052      -0.00000000     0.36D-06     0.45D-06     8     0       0.01      0.12    diag
  10     -152.09521052      -0.00000000     0.53D-07     0.59D-07     0     0       0.01      0.13    diag/orth

 Final occupancy:  10

 !RHF STATE 1.1 Energy               -152.095210519270
  RHF One-electron energy            -282.777287508945
  RHF Two-electron energy              93.965689611295
  RHF Kinetic energy                  152.493960255337
  RHF Nuclear energy                   36.716387378381
  RHF Virial quotient                  -0.997385144071

 !RHF STATE 1.1 Dipole moment          -0.26844744    -0.55066121     1.62143187
 Dipole moment /Debye                  -0.68232534    -1.39964118     4.12126873

 Orbital energies:

           1.1          2.1          3.1          4.1          5.1          6.1          7.1          8.1          9.1         10.1
    -20.559673   -20.507767    -1.388547    -1.337674    -0.761402    -0.712154    -0.605558    -0.546585    -0.526639    -0.476953

          11.1         12.1
      0.134739     0.192871


 HOMO     10.1    -0.476953 =     -12.9786eV
 LUMO     11.1     0.134739 =       3.6664eV
 LUMO-HOMO         0.611692 =      16.6450eV

 Orbitals saved in record  2100.2


 **********************************************************************************************************************************
 DATASETS  * FILE   NREC   LENGTH (MB)   RECORD NAMES
              1      19       33.06       500      610      700      900      950      970     1000      129      960     1100   
                                          VAR    BASINP    GEOM    SYMINP    ZMAT    AOBASIS   BASIS     P2S    ABASIS      S 
                                         1400     1410     1200     1210     1080     1600     1650     1300     1700   
                                           T        V       H0       H01     AOSYM     SMH    MOLCAS    ERIS     OPER   

              2       4        0.52       700     1000      520     2100   
                                         GEOM     BASIS   MCVARS     RHF  

 PROGRAMS   *        TOTAL    HF-SCF       INT
 CPU TIMES  *         0.49      0.13      0.25
 REAL TIME  *         0.56 SEC
 DISK USED  *        51.03 MB
 **********************************************************************************************************************************


 PROGRAM * OPT (Geometry optimization)     Authors: F. Eckert and H.-J. Werner


 BFGS update of hessian

 *** Long output written to logfile /home/lme/Theoretische_Chemie/Nomodeco/pymolpro_integration/water_dimer/water_dimer_isotopes/Water_Dimer.molpro/run/Water_Dimer_1.molpro/Water_Dimer_1.log ***


 Geometry optimization using default procedure for command HF-SCF

 Geometry written to block  1 of record 700

 PQS Optimization using delocalized internal coordinates

 Point group c1. Number of degrees of freedom:   12

 ITER.   ENERGY(OLD)    ENERGY(NEW)      DE          GRADMAX     GRADNORM    GRADRMS     STEPMAX     STEPLEN     STEPRMS   CPU-time
   1  -152.09521052  -152.09971843    -0.00450792  0.04450887  0.07840469  0.02263348  0.06493512  0.12504928  0.03609862      0.58
   2  -152.09971843  -152.09989871    -0.00018028  0.00255645  0.00593123  0.00171220  0.04944552  0.06641902  0.01917352      1.17
   3  -152.09989871  -152.10015318    -0.00025446  0.00269630  0.00372799  0.00107618  0.14874819  0.19276057  0.05564518      1.72
   4  -152.10015318  -152.10046628    -0.00031311  0.00311269  0.00472875  0.00136507  0.29055568  0.40218671  0.11610130      2.32
   5  -152.10046628  -152.10095696    -0.00049067  0.00514775  0.00821711  0.00237208  0.26883062  0.35817486  0.10339618      2.92
   6  -152.10095696  -152.10176344    -0.00080648  0.00456861  0.00732461  0.00211443  0.34814462  0.50000000  0.14433757      3.52
   7  -152.10176344  -152.10229502    -0.00053158  0.00222309  0.00409452  0.00118199  0.32727443  0.50000000  0.14433757      4.13
   8  -152.10229502  -152.10241525    -0.00012023  0.00109914  0.00184024  0.00053123  0.31226307  0.43062939  0.12431200      4.71
   9  -152.10241525  -152.10259107    -0.00017582  0.00127383  0.00191983  0.00055421  0.23292362  0.46632844  0.13461743      5.31
  10  -152.10259107  -152.10268032    -0.00008925  0.00137554  0.00198114  0.00057191  0.24988870  0.43015632  0.12417543      5.89
  11  -152.10268032  -152.10283344    -0.00015313  0.00129151  0.00199838  0.00057688  0.28125503  0.43391537  0.12526058      6.49
  12  -152.10283344  -152.10287960    -0.00004616  0.00091091  0.00188514  0.00054419  0.15165040  0.24088920  0.06953872      7.06
  13  -152.10287960  -152.10289558    -0.00001598  0.00082915  0.00124404  0.00035912  0.04753088  0.07304242  0.02108553      7.64
  14  -152.10289558  -152.10289872    -0.00000314  0.00039729  0.00064963  0.00018753  0.03966095  0.05064676  0.01462046      8.21
  15  -152.10289872  -152.10289952    -0.00000080  0.00036602  0.00053973  0.00015581  0.06581783  0.08169315  0.02358278      8.78
  16  -152.10289952  -152.10289957    -0.00000004  0.00036201  0.00051903  0.00014983  0.10074862  0.12487131  0.03604724      9.32
  17  -152.10289957  -152.10290207    -0.00000250  0.00030990  0.00049895  0.00014404  0.02132670  0.02508089  0.00724023      9.91
  18  -152.10290207  -152.10290583    -0.00000376  0.00027726  0.00042654  0.00012313  0.05241321  0.06278239  0.01812372     10.51
  19  -152.10290583  -152.10290712    -0.00000129  0.00021647  0.00036127  0.00010429  0.00692700  0.01121821  0.00323842     11.09
  20  -152.10290712  -152.10291031    -0.00000319  0.00018283  0.00028108  0.00008114  0.01102795  0.02113337  0.00610068     11.67
  21  -152.10291031  -152.10291197    -0.00000166  0.00010160  0.00018735  0.00005408  0.03086514  0.03429667  0.00990060     12.27
  22  -152.10291197  -152.10291268    -0.00000070  0.00012371  0.00020133  0.00005812  0.02990386  0.03299197  0.00952396     12.87

 END OF GEOMETRY OPTIMIZATION.

 Geometry written to block  1 of record 700

 Recomputing wavefunction for reoriented structure

 Current geometry (xyz format, in Angstrom)

    6
 HF-SCF000/6-311G(D,P)  ENERGY=-152.10291268
 O          0.0583395818        0.0290893186       -1.5788154424
 H          0.0203778759       -0.0084614881       -0.6352493740
 H         -0.7740405020       -0.2950441920       -1.8727521741
 O         -0.0534879536       -0.0681074804        1.3966248851
 H          0.0390649296        0.7740355142        1.8078469670
 H          0.5985939627       -0.6237720819        1.7876568947

 **********************************************************************************************************************************


 **********************************************************************************************************************************
 DATASETS  * FILE   NREC   LENGTH (MB)   RECORD NAMES
              1      19       33.19       500      610      700      900      950      970     1000      129      960     1100   
                                          VAR    BASINP    GEOM    SYMINP    ZMAT    AOBASIS   BASIS     P2S    ABASIS      S 
                                         1400     1410     1200     1210     1080     1600     1650     1300     1700   
                                           T        V       H0       H01     AOSYM     SMH    MOLCAS    ERIS     OPER   

              2       4        0.52       700     1000      520     2100   
                                         GEOM     BASIS   MCVARS     RHF  

 PROGRAMS   *        TOTAL      OPTG    HF-SCF       INT
 CPU TIMES  *        13.69     13.20      0.13      0.25
 REAL TIME  *        15.05 SEC
 DISK USED  *        51.72 MB
 **********************************************************************************************************************************


 PROGRAM * HESSIAN

 PROGRAM * MCKINLEY (Hessian of the energy)     Author: A. Bernhardsson, R. Lindh

 Orbitals from record         2100.2

 Number of closed-shell orbitals: 10 ( 10 )
 Number of occupied orbitals:     10 ( 10 )

 Number of electrons= 20     Singlet     Space symmetry=1      Wavefunction type: CLOSED          


 McKinley needed      2.35 seconds of CPU time

 Entering CPHF calculation

 CPHF needed 145 iterations for 18 perturbations.  Total CPU time:    1.86 sec


 HF-SCF hessian saved to record  5300.2

 PROGRAM * FREQUENCIES (Calculation of harmonic vibrational spectra for HF-SCF)


 Permanent Dipole Moment [debye]
     1-   3    0.000000    0.000000    0.000000

 Dipole Moment Norm    0.0000000 [debye]

 Dipole Moment Derivatives [debye/ang]
              1             2             3             4             5             6             7             8
    1    0.00000000    0.00000000    0.00000000    0.00000000    0.00000000    0.00000000    0.00000000    0.00000000
    2    0.00000000    0.00000000    0.00000000    0.00000000    0.00000000    0.00000000    0.00000000    0.00000000
    3    0.00000000    0.00000000    0.00000000    0.00000000    0.00000000    0.00000000    0.00000000    0.00000000
              9            10            11            12            13            14            15            16
    1    0.00000000    0.00000000    0.00000000    0.00000000    0.00000000    0.00000000    0.00000000    0.00000000
    2    0.00000000    0.00000000    0.00000000    0.00000000    0.00000000    0.00000000    0.00000000    0.00000000
    3    0.00000000    0.00000000    0.00000000    0.00000000    0.00000000    0.00000000    0.00000000    0.00000000
             17            18
    1    0.00000000    0.00000000
    2    0.00000000    0.00000000
    3    0.00000000    0.00000000

 Projecting out rotations and translations

 Force Constants (Second Derivatives of the Energy) in [a.u.]
                             O1X1        O1Y1        O1Z1        H2X2        H2Y2    
           O1X1          0.5414107
           O1Y1          0.2107587   0.0875983
           O1Z1          0.1194890   0.0309387   0.7029042
           H2X2         -0.0530427  -0.0199387   0.0603680   0.0567329
           H2Y2         -0.0185207  -0.0148516   0.0379651   0.0182829   0.0188539
           H2Z2          0.0022907   0.0148940  -0.5924020  -0.0070514  -0.0171330
           H3X3         -0.4911088  -0.1907075  -0.1797945   0.0001887  -0.0003907
           H3Y3         -0.1921110  -0.0757451  -0.0690670   0.0010293   0.0011640
           H3Z3         -0.1214417  -0.0458508  -0.1038600  -0.0530966  -0.0207361
           O4X4          0.0038476  -0.0002774  -0.0001028  -0.0052896   0.0007639
           O4Y4         -0.0002930   0.0044970   0.0001794   0.0007397  -0.0069124
           O4Z4         -0.0020320  -0.0006497  -0.0065871   0.0032253   0.0012474
           H5X5         -0.0005958   0.0001705  -0.0003652   0.0006769   0.0000193
           H5Y5          0.0000759  -0.0007523   0.0009584  -0.0000758   0.0009838
           H5Z5          0.0002239   0.0018897   0.0000261  -0.0004607  -0.0038218
           H6X6         -0.0005110  -0.0000054   0.0004055   0.0007339  -0.0001546
           H6Y6          0.0000901  -0.0007464  -0.0009746  -0.0000373   0.0007623
           H6Z6          0.0014702  -0.0012220  -0.0000812  -0.0029847   0.0024784
                             H2Z2        H3X3        H3Y3        H3Z3        O4X4    
           H2Z2          0.6099354
           H3X3          0.0056723   0.4911675
           H3Y3          0.0026362   0.1910608   0.0749345
           H3Z3         -0.0148129   0.1736412   0.0662365   0.1192239
           O4X4         -0.0015178  -0.0003432   0.0001465   0.0010283   0.3434262
           O4Y4         -0.0006723   0.0001637  -0.0007221   0.0003945  -0.1911403
           O4Z4         -0.0019293   0.0006106   0.0002465  -0.0007891   0.2421513
           H5X5          0.0010687   0.0001249  -0.0002154  -0.0000378  -0.0380666
           H5Y5         -0.0017726  -0.0000739   0.0001125  -0.0001047  -0.0225514
           H5Z5         -0.0004670   0.0000019  -0.0001963   0.0001109  -0.0436815
           H6X6         -0.0004624  -0.0000291   0.0000898  -0.0000934  -0.3035745
           H6Y6          0.0020477  -0.0000524   0.0002562   0.0000606   0.2130587
           H6Z6         -0.0003242  -0.0001316   0.0001441   0.0001273  -0.1978775
                             O4Y4        O4Z4        H5X5        H5Y5        H5Z5    
           O4Y4          0.7342445
           O4Z4          0.1045550   0.2824759
           H5X5         -0.0675172  -0.0618598   0.0343520
           H5Y5         -0.4932019  -0.2105923   0.0308928   0.5194751
           H5Z5         -0.2509281  -0.1417139   0.0437539   0.2293599   0.1325990
           H6X6          0.2580470  -0.1820954   0.0035087  -0.0082676   0.0001625
           H6Y6         -0.2379051   0.1051930   0.0366500  -0.0266172   0.0236967
           H6Z6          0.1464716  -0.1314565   0.0174403  -0.0178488   0.0094449
                             H6X6        H6Y6        H6Z6    
           H6X6          0.2998720
           H6Y6         -0.2497092   0.2642502
           H6Z6          0.1820832  -0.1300234   0.1222896


 Atomic Masses
     1-   6   15.999400    1.007940    1.007940   15.999400    2.014000    1.007940

 Mass weighted Second Derivative Matrix
                             O1X1        O1Y1        O1Z1        H2X2        H2Y2    
           O1X1          0.0338394
           O1Y1          0.0131729   0.0054751
           O1Z1          0.0074683   0.0019337   0.0439332
           H2X2         -0.0132086  -0.0049651   0.0150327   0.0562860
           H2Y2         -0.0046120  -0.0036983   0.0094540   0.0181388   0.0187054
           H2Z2          0.0005704   0.0037089  -0.1475188  -0.0069959  -0.0169980
           H3X3         -0.1222949  -0.0474896  -0.0447721   0.0001872  -0.0003877
           H3Y3         -0.0478391  -0.0188619  -0.0171989   0.0010212   0.0011549
           H3Z3         -0.0302412  -0.0114177  -0.0258630  -0.0526783  -0.0205728
           O4X4          0.0002405  -0.0000173  -0.0000064  -0.0013172   0.0001902
           O4Y4         -0.0000183   0.0002811   0.0000112   0.0001842  -0.0017213
           O4Z4         -0.0001270  -0.0000406  -0.0004117   0.0008032   0.0003106
           H5X5         -0.0001050   0.0000300  -0.0000643   0.0004751   0.0000136
           H5Y5          0.0000134  -0.0001325   0.0001688  -0.0000532   0.0006905
           H5Z5          0.0000394   0.0003329   0.0000046  -0.0003233  -0.0026824
           H6X6         -0.0001273  -0.0000014   0.0001010   0.0007281  -0.0001534
           H6Y6          0.0000224  -0.0001859  -0.0002427  -0.0000370   0.0007563
           H6Z6          0.0003661  -0.0003043  -0.0000202  -0.0029611   0.0024589
                             H2Z2        H3X3        H3Y3        H3Z3        O4X4    
           H2Z2          0.6051306
           H3X3          0.0056277   0.4872983
           H3Y3          0.0026154   0.1895557   0.0743442
           H3Z3         -0.0146962   0.1722733   0.0657148   0.1182847
           O4X4         -0.0003780  -0.0000855   0.0000365   0.0002561   0.0214649
           O4Y4         -0.0001674   0.0000408  -0.0001798   0.0000982  -0.0119467
           O4Z4         -0.0004804   0.0001521   0.0000614  -0.0001965   0.0151350
           H5X5          0.0007501   0.0000876  -0.0001512  -0.0000265  -0.0067060
           H5Y5         -0.0012441  -0.0000519   0.0000790  -0.0000735  -0.0039728
           H5Z5         -0.0003277   0.0000013  -0.0001378   0.0000778  -0.0076951
           H6X6         -0.0004588  -0.0000288   0.0000891  -0.0000927  -0.0755955
           H6Y6          0.0020316  -0.0000520   0.0002541   0.0000601   0.0530555
           H6Z6         -0.0003216  -0.0001305   0.0001430   0.0001263  -0.0492751
                             O4Y4        O4Z4        H5X5        H5Y5        H5Z5    
           O4Y4          0.0458920
           O4Z4          0.0065349   0.0176554
           H5X5         -0.0118941  -0.0108975   0.0170566
           H5Y5         -0.0868847  -0.0370989   0.0153390   0.2579320
           H5Z5         -0.0442046  -0.0249650   0.0217249   0.1138828   0.0658386
           H6X6          0.0642584  -0.0453450   0.0024626  -0.0058027   0.0001140
           H6Y6         -0.0592427   0.0261950   0.0257233  -0.0186817   0.0166319
           H6Z6          0.0364741  -0.0327350   0.0122407  -0.0125274   0.0066290
                             H6X6        H6Y6        H6Z6    
           H6X6          0.2975098
           H6Y6         -0.2477421   0.2621686
           H6Z6          0.1806489  -0.1289992   0.1213263


 Mass Weighted 2nd Derivative Matrix Eigenvalues
     1-  10    0.000000    0.000000    0.000000    0.000000    0.000000    0.000000    0.000362    0.000551    0.000758    0.001094
    11-  18    0.004049    0.013297    0.089090    0.119779    0.349906    0.636064    0.663114    0.672078

 Mass Weighted 2nd Derivative Matrix Eigenvectors
              1             2             3             4             5             6             7             8
    1    0.94088686   -0.03602517    0.05563329   -0.08349617   -0.06603780    0.00375837    0.01081274    0.00252924
    2    0.11583096    0.28147089   -0.40151939    0.67303008    0.44892550   -0.05702603   -0.10435074   -0.12410044
    3    0.01858877    0.10240491   -0.32492663    0.05601748   -0.37153100    0.41856423   -0.13115157   -0.14619020
    4    0.16241843    0.04591841    0.03567326   -0.03216874    0.01491878    0.03093205   -0.02558513    0.29923030
    5    0.02020841    0.04445593   -0.02148732    0.16263492    0.05252951   -0.00154624    0.33955317   -0.04220233
    6    0.00134620    0.02687197   -0.07752605    0.01335864   -0.09437916    0.10677223   -0.01950796   -0.02522513
    7    0.25009098   -0.10183215    0.00159707   -0.02233077    0.10394268    0.12250082    0.03569495   -0.30301397
    8    0.05455480    0.26902197   -0.11139376    0.18312019   -0.19620233   -0.34734291   -0.20550988    0.48867518
    9   -0.06288942    0.06971553   -0.03483008    0.00229912   -0.09392662    0.12806950    0.07111517    0.24908996
   10    0.01672714    0.67352165    0.32979369   -0.22312923    0.29683600    0.34757735    0.00596365    0.20654348
   11    0.00361465   -0.05466808    0.59414982    0.59351973   -0.29457188    0.11561194    0.21995568    0.02210417
   12   -0.01981011    0.11809174   -0.28209783    0.04817226   -0.38218028    0.43712562   -0.06053306   -0.07590275
   13   -0.00683220    0.54625517    0.15063288   -0.06848767   -0.34623346   -0.33122033   -0.03662652   -0.47828141
   14   -0.00832901   -0.07027893    0.25707631    0.20446698   -0.08171994    0.10899320   -0.28577483   -0.05056907
   15    0.01552825    0.07694001   -0.20242075    0.02720295   -0.08064390    0.11818685    0.72984909    0.21461223
   16   -0.04089663    0.07013248    0.08276128   -0.06847683    0.29715823    0.31018814   -0.02517572   -0.15311458
   17   -0.02073944   -0.17504648    0.17084573    0.13668622    0.16030110    0.29460787   -0.19067135    0.03137661
   18    0.03946753   -0.03465047   -0.03991935    0.01543359   -0.13436518    0.11533897   -0.31959004    0.35761844
              9            10            11            12            13            14            15            16
    1    0.09818028    0.01105760    0.03625718    0.04844858   -0.00370398   -0.20550765    0.00014001    0.09034101
    2   -0.17973879    0.02147558    0.00274523   -0.12440327   -0.00368671   -0.08515382   -0.00006221    0.04029660
    3    0.10568007   -0.64750798   -0.12219449   -0.00384288    0.00723988    0.14332290   -0.00114915   -0.18243498
    4   -0.25243069   -0.03724248    0.50147070   -0.34296137    0.00372644    0.66540611   -0.00106695   -0.00477407
    5   -0.00271124   -0.04256942    0.26311893    0.84223016    0.01501955    0.26318782   -0.00050003   -0.02307522
    6    0.01715765   -0.16486472   -0.00141071    0.01974890   -0.00097075    0.04219022    0.00371089    0.88624681
    7   -0.12941312    0.01683386   -0.17865072   -0.02275587    0.00344761    0.18007302   -0.00006579   -0.35395254
    8    0.55865024    0.01713764   -0.06856759    0.06594221    0.00337614    0.08639123    0.00013751   -0.13708758
    9   -0.20211519   -0.21605121    0.57101014   -0.00893885   -0.01298771   -0.61286097   -0.00004950   -0.15597370
   10   -0.08016146   -0.04377542   -0.23504433    0.08222597   -0.19550840   -0.00702530   -0.03536768   -0.00896252
   11   -0.01401627   -0.04514176   -0.09935850   -0.13489247   -0.07321062   -0.00284623   -0.28738553    0.00854547
   12    0.04657380    0.67915972    0.12323583    0.02022113   -0.22150327    0.00830876   -0.14470248   -0.00515042
   13   -0.11016221    0.05986351    0.16264278   -0.05450260    0.40392581   -0.00181665    0.07736603    0.00028060
   14   -0.00548871    0.04980546    0.06201643    0.07441754   -0.22032092    0.00629731    0.85040280   -0.00484259
   15    0.03643898    0.08971029   -0.20679905   -0.22530241    0.29600886   -0.01156614    0.40215526   -0.00219428
   16    0.46577456    0.06614065    0.23927136   -0.07786601    0.21554490    0.00384968    0.03212360    0.03410674
   17    0.22376674    0.04931844    0.10270580    0.01970475    0.59940951   -0.00787616   -0.05649593   -0.02758555
   18   -0.47315153    0.12800064   -0.28142663    0.24241384    0.44918914   -0.01710154    0.00896367    0.02019498
             17            18
    1   -0.01906664   -0.18620782
    2   -0.00743020   -0.06999442
    3   -0.00440166   -0.17137854
    4   -0.00283654   -0.02858018
    5   -0.00035458   -0.02086531
    6   -0.01383597    0.39557098
    7    0.07808957    0.77097196
    8    0.03025554    0.29985371
    9    0.03032390    0.28803355
   10   -0.16068405    0.01217841
   11    0.15568271   -0.01183445
   12   -0.08959320    0.00693383
   13   -0.01444370    0.00159329
   14   -0.02510386    0.00032887
   15   -0.02285057    0.00129101
   16    0.66131570   -0.05128658
   17   -0.58507394    0.04656433
   18    0.39030118   -0.03025882

   Low Vibration      Wavenumber
        Nr             [1/cm] 
        1                0.00
        2                0.00
        3                0.00
        4                0.00
        5                0.00
        6                0.00

     Vibration        Wavenumber
        Nr             [1/cm] 
        1               97.79
        2              120.62
        3              141.55
        4              169.99
        5              327.09
        6              592.76
        7             1534.33
        8             1779.08
        9             3040.75
       10             4099.72
       11             4185.99
       12             4214.19

 FREQUENCIES * CALCULATION OF NORMAL MODES FOR HF-SCF


 Atomic Coordinates

  Nr  Atom  Charge       X              Y              Z

   1   O1    8.00    0.110245832    0.054970845   -2.983528787
   2   H2    1.00    0.038508605   -0.015989895   -1.200447338
   3   H3    1.00   -1.462724558   -0.557552718   -3.538988708
   4   O4    8.00   -0.101077583   -0.128704485    2.639238532
   5   H5    1.00    0.073822018    1.462715133    3.416335643
   6   H6    1.00    1.131178649   -1.178758399    3.378181936

 Gradient norm at reference geometry: 0.37928D-03

 Normal Modes

                              1 A         2 A         3 A         4 A         5 A  
 Wavenumbers [cm-1]           97.79      120.62      141.55      169.99      327.09
 Intensities [km/mol]          0.00        0.00        0.00        0.00        0.00
 Intensities [relative]        0.00        0.00        0.00        0.00        0.00
           O1X1             0.00270     0.00063     0.02455     0.00276     0.00906
           O1Y1            -0.02609    -0.03103    -0.04494     0.00537     0.00069
           O1Z1            -0.03279    -0.03655     0.02642    -0.16188    -0.03055
           H2X2            -0.02548     0.29805    -0.25143    -0.03710     0.49949
           H2Y2             0.33821    -0.04204    -0.00270    -0.04240     0.26208
           H2Z2            -0.01943    -0.02513     0.01709    -0.16421    -0.00141
           H3X3             0.03555    -0.30182    -0.12890     0.01677    -0.17795
           H3Y3            -0.20470     0.48675     0.55645     0.01707    -0.06830
           H3Z3             0.07083     0.24811    -0.20132    -0.21520     0.56876
           O4X4             0.00149     0.05164    -0.02004    -0.01094    -0.05876
           O4Y4             0.05499     0.00553    -0.00350    -0.01129    -0.02484
           O4Z4            -0.01513    -0.01898     0.01164     0.16979     0.03081
           H5X5            -0.02581    -0.33702    -0.07763     0.04218     0.11461
           H5Y5            -0.20137    -0.03563    -0.00387     0.03510     0.04370
           H5Z5             0.51428     0.15123     0.02568     0.06321    -0.14572
           H6X6            -0.02508    -0.15251     0.46394     0.06588     0.23833
           H6Y6            -0.18992     0.03125     0.22288     0.04912     0.10230
           H6Z6            -0.31833     0.35621    -0.47128     0.12750    -0.28032

                              6 A         7 A         8 A         9 A        10 A  
 Wavenumbers [cm-1]          592.76     1534.33     1779.08     3040.75     4099.72
 Intensities [km/mol]          0.00        0.00        0.00        0.00        0.00
 Intensities [relative]        0.00        0.00        0.00        0.00        0.00
           O1X1             0.01211    -0.00093    -0.05138     0.00004     0.02259
           O1Y1            -0.03110    -0.00092    -0.02129    -0.00002     0.01007
           O1Z1            -0.00096     0.00181     0.03583    -0.00029    -0.04561
           H2X2            -0.34161     0.00371     0.66278    -0.00106    -0.00476
           H2Y2             0.83891     0.01496     0.26215    -0.00050    -0.02298
           H2Z2             0.01967    -0.00097     0.04202     0.00370     0.88275
           H3X3            -0.02267     0.00343     0.17936    -0.00007    -0.35256
           H3Y3             0.06568     0.00336     0.08605     0.00014    -0.13655
           H3Z3            -0.00890    -0.01294    -0.61044    -0.00005    -0.15536
           O4X4             0.02056    -0.04888    -0.00176    -0.00884    -0.00224
           O4Y4            -0.03372    -0.01830    -0.00071    -0.07185     0.00214
           O4Z4             0.00506    -0.05538     0.00208    -0.03618    -0.00129
           H5X5            -0.03840     0.28462    -0.00128     0.05452     0.00020
           H5Y5             0.05244    -0.15525     0.00444     0.59923    -0.00341
           H5Z5            -0.15876     0.20858    -0.00815     0.28338    -0.00155
           H6X6            -0.07756     0.21469     0.00383     0.03200     0.03397
           H6Y6             0.01963     0.59704    -0.00785    -0.05627    -0.02748
           H6Z6             0.24146     0.44742    -0.01703     0.00893     0.02012

                             11 A        12 A  
 Wavenumbers [cm-1]         4185.99     4214.19
 Intensities [km/mol]          0.00        0.00
 Intensities [relative]        0.00        0.00
           O1X1            -0.00477    -0.04655
           O1Y1            -0.00186    -0.01750
           O1Z1            -0.00110    -0.04285
           H2X2            -0.00283    -0.02847
           H2Y2            -0.00035    -0.02078
           H2Z2            -0.01378     0.39401
           H3X3             0.07778     0.76793
           H3Y3             0.03014     0.29867
           H3Z3             0.03020     0.28690
           O4X4            -0.04017     0.00304
           O4Y4             0.03892    -0.00296
           O4Z4            -0.02240     0.00173
           H5X5            -0.01018     0.00112
           H5Y5            -0.01769     0.00023
           H5Z5            -0.01610     0.00091
           H6X6             0.65871    -0.05108
           H6Y6            -0.58276     0.04638
           H6Z6             0.38876    -0.03014


 Normal Modes of low/zero frequencies

                                  1           2           3           4           5
 Wavenumbers [cm-1]            0.00        0.00        0.00        0.00        0.00
 Intensities [km/mol]          0.00        0.00        0.00        0.00        0.00
 Intensities [relative]        0.00        0.00        0.00        0.00        0.00
           O1X1             0.23523    -0.00901     0.01391    -0.02087    -0.01651
           O1Y1             0.02896     0.07037    -0.10038     0.16826     0.11223
           O1Z1             0.00465     0.02560    -0.08123     0.01400    -0.09288
           H2X2             0.16178     0.04574     0.03553    -0.03204     0.01486
           H2Y2             0.02013     0.04428    -0.02140     0.16199     0.05232
           H2Z2             0.00134     0.02677    -0.07722     0.01331    -0.09401
           H3X3             0.24910    -0.10143     0.00159    -0.02224     0.10353
           H3Y3             0.05434     0.26796    -0.11095     0.18240    -0.19543
           H3Z3            -0.06264     0.06944    -0.03469     0.00229    -0.09356
           O4X4             0.00418     0.16838     0.08245    -0.05578     0.07421
           O4Y4             0.00090    -0.01367     0.14854     0.14838    -0.07364
           O4Z4            -0.00495     0.02952    -0.07053     0.01204    -0.09555
           H5X5            -0.00481     0.38492     0.10614    -0.04826    -0.24397
           H5Y5            -0.00587    -0.04952     0.18115     0.14408    -0.05758
           H5Z5             0.01094     0.05422    -0.14263     0.01917    -0.05683
           H6X6            -0.04074     0.06986     0.08243    -0.06821     0.29599
           H6Y6            -0.02066    -0.17436     0.17017     0.13615     0.15967
           H6Z6             0.03931    -0.03451    -0.03976     0.01537    -0.13383

                                  6
 Wavenumbers [cm-1]            0.00
 Intensities [km/mol]          0.00
 Intensities [relative]        0.00
           O1X1             0.00094
           O1Y1            -0.01426
           O1Z1             0.10464
           H2X2             0.03081
           H2Y2            -0.00154
           H2Z2             0.10635
           H3X3             0.12202
           H3Y3            -0.34597
           H3Z3             0.12756
           O4X4             0.08690
           O4Y4             0.02890
           O4Z4             0.10928
           H5X5            -0.23339
           H5Y5             0.07680
           H5Z5             0.08328
           H6X6             0.30896
           H6Y6             0.29345
           H6Z6             0.11488


 Frequencies dumped to record   5400.2
 Frequency information read from record  5400.2

 Zero point energy:  0.04625559 [H]    10151.93 [1/CM]      121.44 [KJ/MOL]


 **********************************************************************************************************************************
 DATASETS  * FILE   NREC   LENGTH (MB)   RECORD NAMES
              1      19       33.19       500      610      700      900      950      970     1000      129      960     1100   
                                          VAR    BASINP    GEOM    SYMINP    ZMAT    AOBASIS   BASIS     P2S    ABASIS      S 
                                         1400     1410     1200     1210     1080     1600     1650     1300     1700   
                                           T        V       H0       H01     AOSYM     SMH    MOLCAS    ERIS     OPER   

              2       7        0.57       700     1000      520     2100     5300     5450     5400   
                                         GEOM     BASIS   MCVARS     RHF     HESS     NMOD     FREQ   

              4       5        1.12      4100     4000     4200     4300     4400   

 PROGRAMS   *        TOTAL      FREQ      OPTG    HF-SCF       INT
 CPU TIMES  *        17.90      4.21     13.20      0.13      0.25
 REAL TIME  *        19.43 SEC
 DISK USED  *        51.72 MB
 **********************************************************************************************************************************

 Dump information in style MOLDEN to water_dimer.molden                                                              

 Molecular orbitals read from record     2100.2  Type=RHF/CANONICAL  
 Occupation numbers read from record     2100.2  Type=RHF/RHF  
 Orbital energies read from record       2100.2  Type=RHF/CANONICAL  
 Redundancy group numbers read from rec  2100.2  Type=RHF/RHF  

 DUMP ORBITAL  1.1 AS ORBITAL    1  occ=    2.0000  eig=  -20.5725  GROUP=   2
 DUMP ORBITAL  2.1 AS ORBITAL    2  occ=    2.0000  eig=  -20.5082  GROUP=   2
 DUMP ORBITAL  3.1 AS ORBITAL    3  occ=    2.0000  eig=   -1.3786  GROUP=   2
 DUMP ORBITAL  4.1 AS ORBITAL    4  occ=    2.0000  eig=   -1.3175  GROUP=   2
 DUMP ORBITAL  5.1 AS ORBITAL    5  occ=    2.0000  eig=   -0.7471  GROUP=   2
 DUMP ORBITAL  6.1 AS ORBITAL    6  occ=    2.0000  eig=   -0.6906  GROUP=   2
 DUMP ORBITAL  7.1 AS ORBITAL    7  occ=    2.0000  eig=   -0.6048  GROUP=   2
 DUMP ORBITAL  8.1 AS ORBITAL    8  occ=    2.0000  eig=   -0.5466  GROUP=   2
 DUMP ORBITAL  9.1 AS ORBITAL    9  occ=    2.0000  eig=   -0.5247  GROUP=   2
 DUMP ORBITAL 10.1 AS ORBITAL   10  occ=    2.0000  eig=   -0.4706  GROUP=   2

 Total charge:      20.000000
 Frequency information read from record  5400.2

 **********************************************************************************************************************************

 HF/6-311G(D,P)//HF/6-311G(D,P) energy=   -152.102912677761

    OPTG(HF-SCF)          HF-SCF
   -152.10291268   -152.09521052
 **********************************************************************************************************************************
 Molpro calculation terminated
