[Molden Format]
[Molpro variables]
_NUMVAR=  1076.000000000000    
_AVOGAD= 0.6022140760000000E+24
_BOLTZ= 0.1380649000000000E-22
_CLIGHTSI=  299792458.0000000    
_JOULE= 0.4359744722207100E-17
_JPCAL=  4.184000000000000    
_PLANCK= 0.6626070150000000E-33
_BOHR= 0.5291772109030000E-10
_ECHARG= 0.1602176634000000E-18
_ENULL= 0.8854187812800001E-11
_MU= 0.1660539066600000E-26
_EMASS= 0.9109383701500001E-30
_AMU2AU=  1822.888486217313    
_CLIGHT=  29979245800.00000    
_EV= 0.3674932217565494E-01
_KJOULE= 0.3808798847133432E-03
_KJOULE/MOL= 0.3808798847133432E-03
_CM= 0.4556335252912009E-05
_CM-1= 0.4556335252912009E-05
_DEB2SI= 0.3335640951981520E-29
_KCAL= 0.1593601437640628E-02
_KCAL/MOL= 0.1593601437640628E-02
_KELVIN= 0.3166811563455608E-05
_HERTZ= 0.1519829846057038E-15
_HZ= 0.1519829846057038E-15
_TOA= 0.5291772109030000    
_TOANG= 0.5291772109030000    
_TORAD= 0.1745329251994330E-01
_TOCM=  219474.6313631965    
_TODEBYE=  2.541746473194078    
_TOE= 0.4803204712570263E-09
_TOEV=  27.21138624598803    
_TOHERTZ=  6579683920501656.    
_TOHZ=  6579683920501656.    
_TOK=  315775.0248040668    
_TOKCAL=  627.5094740630558    
_TOKELVIN=  315775.0248040668    
_TOKJ=  2625.499639479825    
_TOKJOULE=  2625.499639479825    
_TOKG= 0.1660539066600000E-26
_ANG=  1.889726124625770    
_ANGSTROM=  1.889726124625770    
_RPAREF=  0.000000000000000    
_RPADISS=  0.000000000000000    
_IGNORE_UNDEF=  2.000000000000000    
_STRICTCHECK=  0.000000000000000    
!SEWARD=  0.000000000000000    
!MULTI=  0.000000000000000    
!DFMULTI=  0.000000000000000    
!NUMHESS=  0.000000000000000    
_SEW_ONEEL=  0.000000000000000    
_CPPDONE=FALSE
_DKROLL_DONE=  0.000000000000000    
_FNUC_DONE=  0.000000000000000    
_FOCKDONE=TRUE
_GRADONE=FALSE
_HESSDONE=TRUE
_INTDONE=TRUE
_SCFDONE=TRUE
_MODUL_BLOCK=FALSE
_MODUL_SLATER=TRUE
_MODUL_MRCC=FALSE
_MODUL_NBO6=FALSE
_MODUL_NECI=FALSE
_MODUL_AIMS=TRUE
_MODUL_HDF5=FALSE
_MODUL_GECCO=FALSE
_ISWINDOWS=FALSE
_MRCC_EXEC=
_FITC_AO_SAVED=FALSE
_FITC_MO_SAVED=FALSE
_LSTYP=SEWARD
_INTYP=INTS
_GEOMTYP=XYZ
_GRADTYP=ALASKA
_DIRECT=FALSE
_DKHO= -1.000000000000000    
_FNUC=  0.000000000000000    
_SYNCM=  0.000000000000000    
_BASIS=6-311G(D,P)
_ZCENTRE=MASS
_ZORIENT=  1.000000000000000    
_NELEC=  20.00000000000000    
!SPIN=  0.000000000000000    
_OPTCONV= 0.3299196746550862E-01
_QSDSTEP=  0.000000000000000    
_QSDIRC=  0.000000000000000    
_PROGRAM=FREQ
_CPUSTEP=  4.209999999999999    
_SYSSTEP= 0.1700000000000002    
_WALLSTEP=  4.380000000000000    
!DFSCF=  0.000000000000000    
!SCSGRD=  0.000000000000000    
_NCEN=  6.000000000000000    
_CPUTOT=  17.90000000000000    
_DFTEXFAC=  1.000000000000000    
_DMX=-0.7667291633435609E-01
_DMY=-0.5229339207996553E-01
_DMZ=  1.265377890101310    
_DMX_SCF=-0.7667291633435609E-01
_DMY_SCF=-0.5229339207996553E-01
_DMZ_SCF=  1.265377890101310    
_FREQUENCIES= 0.8138679099225280E-04
_HOMO=  10.10000000000000    
_EHOMO=-0.4706405876775783    
_LUMO=  11.10000000000000    
_ELUMO= 0.1334554011291887    
_ENERGY= -152.1029126777613    
_ENERGY_METHOD=HF
_ENERGY_BASIS=6-311G(D,P)
_GEOMETRY_METHOD=HF
_GEOMETRY_BASIS=6-311G(D,P)
_ENUC=  36.51034587756610    
_GRADENERG= -152.1029119736386    
_GRADEXFAC=  9999.000000000000    
_GRADMETHOD=  1.000000000000000    
_NMRMETHOD=  0.000000000000000    
_NMRMAGNET=  0.000000000000000    
_VIRIAL=-0.2556624602874672E-03
!GRID_FREEZE= -1.000000000000000    
!NEESE_INDEX=  0.000000000000000    
_ITERATIONS=  12.00000000000000    
_LASTNELEC=  20.00000000000000    
_LASTSPIN=  0.000000000000000    
_LASTSYM=  1.000000000000000    
_MPP_PROG=  0.000000000000000    
_MSNSTATES=  0.000000000000000    
_RS2PHASE=  0.000000000000000    
_NPROC_MPP=  1.000000000000000    
_NPROC_SMP=  6.000000000000000    
_NUMSTEP=  0.000000000000000    
_OPTCONVMX= 0.2990385862709901E-01
_OPTCONVRMS= 0.9523960648653389E-02
_OPTGRAD= 0.2013314819114178E-03
_OPTGRADMX= 0.1237091597107926E-03
_OPTGRADRMS= 0.5811939263895166E-04
!GMAXLAST= 0.1237091597107926E-03
!DMAXLAST= 0.2990385862709901E-01
!DELAST= 0.1660704242567590E-05
_OPTSTEP=  22.00000000000000    
_ORBITAL=  2100.200000000000    
_PI=  3.141592653589793    
_SEIG_MIN= 0.1412307707424606E-01
_SEWPROP=TRUE
_STATUS=  1.000000000000000    
_SYSTOT=  1.520000000000000    
_VERSION=  2024001.000000000    
_WALLTOT=  19.43000000000000    
_ZPE= 0.4625559358563987E-01
_DATE=18-Sep-24
_LASTORB=0
_OUTPUT=/home/lme/Theoretische_Chemie/Nomodeco/pymolpro_integration/water_dimer/water_dimer_isotopes/Water_Dimer.molpro/run/Water_Dimer_1.molpro/Water_Dimer_1.out
_PGROUP=C1
_TIME=10:52:26
_LIBMOL=/usr/local/molpro/molpro_2024.1.0_sockets/lib/
_VIGRDC=  0.000000000000000    
!VIBCNT=  0.000000000000000    
!SURFREC=  0.000000000000000    
!XSURFREC=  0.000000000000000    
!XPOLYREC=  0.000000000000000    
!ROTREC=  0.000000000000000    
!POLYREC=  0.000000000000000    
!DIPREC=  0.000000000000000    
!DIP4DREC=  0.000000000000000    
!DIPROT=  0.000000000000000    
!DIP4DROT=  0.000000000000000    
!PTREC=  0.000000000000000    
!PT4DREC=  0.000000000000000    
!VSCFREC=  0.000000000000000    
!VCIREC=  0.000000000000000    
!PVCIREC=  0.000000000000000    
!VMP2REC=  0.000000000000000    
!VMCSCFREC=  0.000000000000000    
!VMRCIREC=  0.000000000000000    
!VIBSTATEREC=  0.000000000000000    
!VIBSTATECNT=  0.000000000000000    
!VIBINFO=  0.000000000000000    
!GAREC=  0.000000000000000    
!SCFORB=  21002.00000000000    
!DEFCORE=  2.000000000000000    
!SCORE=  0.000000000000000    
!NEWMOL=  0.000000000000000    
!NEWSYM=  0.000000000000000    
_SLFILES=slscratch
_NGSSTO=  9.000000000000000    
_SIN=SIN
_COS=COS
_TAN=TAN
_ACOS=ACOS
_ASIN=ASIN
_ATAN=ATAN
_COSH=COSH
_SINH=SINH
_TANH=TANH
_ABS=ABS
_MOD=MOD
_ERF=ERF
_REFC=REFC
_ERFC=ERFC
_HYPOT=HYPOT
_J0=J0
_J1=J1
_JN=JN
_GAMMA=GAMMA
_LGAMMA=LGAMMA
_Y0=Y0
_Y1=Y1
_YN=YN
_EXP=EXP
_LOG=LOG
_LOG10=LOG10
_SQRT=SQRT
_INT=INT
_NINT=NINT
_MAX=MAX
_MIN=MIN
_COSMO=  0.000000000000000    
_COSMOIT=  0.000000000000000    
_COSMOES=  0.000000000000000    
_COSMOEDS=  0.000000000000000    
_COSMOEC=  0.000000000000000    
_COSMOEDCORR=  0.000000000000000    
_FEPSI=  1.000000000000000    
_SL_IsMM=  0.000000000000000    
_SL_NSYM=  1.000000000000000    
_SL_System_BitSw=  0.000000000000000    
_SL_Unique_atoms=  0.000000000000000    
_SL_GRAD=  0.000000000000000    
_SL_MAXUPD_Hess=  5.000000000000000    
_SL_N_PRINT_COD=  5.000000000000000    
_SL_PRINT_CODES=  0.000000000000000    
_SL_BasType=  0.000000000000000    
_SL_Energy_Pred=  0.000000000000000    
_SL_New_Coords=  0.000000000000000    
_SL_Total_Nuclea=  0.000000000000000    
_SL_Highest_Mltp=  0.000000000000000    
_SL_Ref_Geom=  0.000000000000000    
_SL_Symmetry_ope=  1.000000000000000    
_SL_agrad=  0.000000000000000    
_SL_GrdMax=  0.000000000000000    
_SL_GrdNorm=  0.000000000000000    
_SL_GrdRMS=  0.000000000000000    
_SL_Hss_Q=  0.000000000000000    
_SL_Hss_X=  0.000000000000000    
_SL_BMxOld=  0.000000000000000    
_SL_KtB=  0.000000000000000    
_SL_TROld=  0.000000000000000    
_SL_No_of_Intern=  0.000000000000000    
_SL_Hess=  0.000000000000000    
_SL_K=  0.000000000000000    
!LATTICE= -1.000000000000000    
!NEWLATTICE=  0.000000000000000    
!LATGRAD_VAR=FALSE
!SEW_LATTICE=  1.000000000000000    
!AIC_ONEEL=  0.000000000000000    
!LOCAL=  0.000000000000000    
!SAVEDOM= -1.000000000000000    
!RESTDOM= -1.000000000000000    
!SAVEDOM_HF= -1.000000000000000    
!RESTDOM_HF= -1.000000000000000    
!HESSREC=  5300.200000000000    
!FREQREC=  5400.200000000000    
!NMODREC=  5450.200000000000    
!GTASKS=  0.000000000000000    
!HTASKS=  0.000000000000000    
!SAVEDOM_EOM= -1.000000000000000    
!RESTDOM_EOM= -1.000000000000000    
!GRADSTATE= -1.000000000000000    
!DEBUG=  0.000000000000000    
!CFIT_CPHF=  0.000000000000000    
!RDOMAUX_CPHF=  0.000000000000000    
!THRAO_CPHF= 0.1000000000000000E-11
!THRMO_CPHF= 0.1000000000000000E-11
!THROV_CPHF= 0.1000000000000000E-13
!THRSW_CPHF= 0.1000000000000000E-11
!THRPROD_CPHF= 0.1000000000000000E-11
!THRAOPR_CPHF= 0.1000000000000000E-11
!CFIT_SCFGRD=  0.000000000000000    
!RDOMAUX_SCFGRD=  0.000000000000000    
!THRAO_SCFGRD= 0.1000000000000000E-11
!THRMO_SCFGRD= 0.1000000000000000E-11
!THROV_SCFGRD= 0.1000000000000000E-13
!THRSW_SCFGRD= 0.1000000000000000E-11
!THRPROD_SCFGRD= 0.1000000000000000E-11
!THRAOPR_SCFGRD= 0.1000000000000000E-11
!LOCFIT_SCF=  0.000000000000000    
!LOCFIT_MP2=  0.000000000000000    
_RIDOM=  0.000000000000000    
!CC2_METHOD=  0.000000000000000    
_BASIS2006=FALSE
_SVDDEL= -1.000000000000000    
_SVDDELA= -1.000000000000000    
_SVDDELP= -1.000000000000000    
_SVDDELF= -1.000000000000000    
_SVDDELS= -1.000000000000000    
_SVDDEL_ABS= -1.000000000000000    
_SVDDELA_ABS= -1.000000000000000    
_SVDDELP_ABS= -1.000000000000000    
_SVDDELF_ABS= -1.000000000000000    
_SVDDELS_ABS= -1.000000000000000    
_MAXBASIS=  0.000000000000000    
!OPT_CONICAL=  0.000000000000000    
!CLEARSP_JGRID=  0.000000000000000    
_GRDHYBR=  0.000000000000000    
_STATEGRAD=  1.000000000000000    
_4EXT_NDISKS=  1.000000000000000    
!EMBEDFLAG=  1.000000000000000    
!EMBED=FALSE
!EMBED_F12=FALSE
!EMBEDNUC=  0.000000000000000    
_EMBEDENERGY=  0.000000000000000    
!EMBED_DFC=FALSE
!NUM_VOIDS=  0.000000000000000    
_IBODY=  0.000000000000000    
_EMBE_CORR=  0.000000000000000    
!EMBED_PROJ=FALSE
!EMB_PROJ_ZMU=  1000000.000000000    
!CORRECTION_HF=  0.000000000000000    
!EMBED_AORB=  0.000000000000000    
!EMBED_NACORR=  0.000000000000000    
!EMBED_MP2=FALSE
!EMBED_TRUNC_PERTURBATION=FALSE
!EMBED_FROZEN=  0.000000000000000    
!EMBED_ACTIVE=  0.000000000000000    
_CHANGE_BASIS=FALSE
_RESTORE_BASIS=FALSE
_FIX_EMBED_GUESS=FALSE
_EMBED_SCF=FALSE
_NEOBAS=FALSE
_NEOOVE=FALSE
_PRINEO=FALSE
_HUZINAGA_T=FALSE
_HUZINAGA_F=FALSE
_HUZINAGA=FALSE
_HUZINAGA_CORRECT=FALSE
!FASTLATGRAD=  1.000000000000000    
!FASTVLAMBDA= -1.000000000000000    
!IFORCE= -1.000000000000000    
!USESYM= -1.000000000000000    
_SINDEX=  0.000000000000000    
_AVDOM_OSV=  0.000000000000000    
_AVDOM_PNO=  0.000000000000000    
_AVDOM_PNOCC=  0.000000000000000    
_AVDOM_TNO=  0.000000000000000    
_AVDOM_TNOIT=  0.000000000000000    
_AVDOM_PAO=  0.000000000000000    
_AVDOM_LMO=  0.000000000000000    
_CC2OSV_FLAG=  0.000000000000000    
_EOMCCSD_CONV=FALSE
_TMADC2_FLAG=FALSE
_PROPADC2_FLAG=FALSE
_LEN_VirQ=  0.000000000000000    
_GRDCC2LR_FLAG=FALSE
_GRDADC2_FLAG=FALSE
_RO_VGLOBAL=  0.000000000000000    
_OPT=FALSE
_FREQ=FALSE
_HESS=FALSE
_CMRCC_callName=EMPTY
_CMRCC_callCount=  0.000000000000000    
_GECCO_CIROOT=  1.000000000000000    
_SYM_CATION=  1.000000000000000    
_MON_A=FALSE
_MON_B=FALSE
_MAXGEOM=  100.0000000000000    
!MAXGEOM=  100.0000000000000    
_NCORE=  0.000000000000000    
_NLARGECORE=  0.000000000000000    
GX1= 0.5833958184376762E-01
GY1= 0.2908931861541265E-01
GZ1= -1.578815442369937    
GX2= 0.2037787594006367E-01
GY2=-0.8461488137875083E-02
GZ2=-0.6352493740243214    
GX3=-0.7740405020085747    
GY3=-0.2950441920135197    
GZ3= -1.872752174086462    
GX4=-0.5348795363924919E-01
GY4=-0.6810748042334105E-01
GZ4=  1.396624885124200    
GX5= 0.3906492963586766E-01
GY5= 0.7740355141713405    
GZ5=  1.807846967012736    
GX6= 0.5985939626738549    
GY6=-0.6237720819289968    
GZ6=  1.787656894692718    
O1X1= 0.1102458319099109    
O1Y1= 0.5497084533510802E-01
O1Z1= -2.983528787409062    
H2X2= 0.3850860452832125E-01
H2Y2=-0.1598989518735361E-01
H2Z2= -1.200447337745928    
H3X3= -1.462724558164050    
H3Y3=-0.5575527175670502    
H3Z3= -3.538988708320896    
O4X4=-0.1010775833448612    
O4Y4=-0.1287044850384258    
O4Z4=  2.639238531721666    
H5X5= 0.7382201808956659E-01
H5Y5=  1.462715132517723    
H5Z5=  3.416335642889429    
H6X6=  1.131178649308047    
H6Y6= -1.178758399033432    
H6Z6=  3.378181935768208    
[Atoms] Angs
O     1    8         0.0583395818        0.0290893186       -1.5788154424
H     2    1         0.0203778759       -0.0084614881       -0.6352493740
H     3    1        -0.7740405020       -0.2950441920       -1.8727521741
O     4    8        -0.0534879536       -0.0681074804        1.3966248851
H     5    1         0.0390649296        0.7740355142        1.8078469670
H     6    1         0.5985939627       -0.6237720819        1.7876568947
[GTO]
   1 0
 s    6  1.00
  0.8588500000D+04  0.1895150083D-02
  0.1297230000D+04  0.1438590063D-01
  0.2992960000D+03  0.7073200310D-01
  0.8737710000D+02  0.2400010105D+00
  0.2567890000D+02  0.5947970261D+00
  0.3740040000D+01  0.2808020123D+00
 s    3  1.00
  0.4211750000D+02  0.1138890124D+00
  0.9628370000D+01  0.9208111006D+00
  0.2853320000D+01 -0.3274470358D-02
 s    1  1.00
  0.9056610000D+00  0.1000000000D+01
 s    1  1.00
  0.2556110000D+00  0.1000000000D+01
 p    3  1.00
  0.4211750000D+02  0.3651139738D-01
  0.9628370000D+01  0.2371529830D+00
  0.2853320000D+01  0.8197019412D+00
 p    1  1.00
  0.9056610000D+00  0.1000000000D+01
 p    1  1.00
  0.2556110000D+00  0.1000000000D+01
 d    1  1.00
  0.1292000000D+01  0.1000000000D+01
  
   2 0
 s    3  1.00
  0.3386500000D+02  0.2549381454D-01
  0.5094790000D+01  0.1903731086D+00
  0.1158790000D+01  0.8521614860D+00
 s    1  1.00
  0.3258400000D+00  0.1000000000D+01
 s    1  1.00
  0.1027410000D+00  0.1000000000D+01
 p    1  1.00
  0.7500000000D+00  0.1000000000D+01
  
   3 0
 s    3  1.00
  0.3386500000D+02  0.2549381454D-01
  0.5094790000D+01  0.1903731086D+00
  0.1158790000D+01  0.8521614860D+00
 s    1  1.00
  0.3258400000D+00  0.1000000000D+01
 s    1  1.00
  0.1027410000D+00  0.1000000000D+01
 p    1  1.00
  0.7500000000D+00  0.1000000000D+01
  
   4 0
 s    6  1.00
  0.8588500000D+04  0.1895150083D-02
  0.1297230000D+04  0.1438590063D-01
  0.2992960000D+03  0.7073200310D-01
  0.8737710000D+02  0.2400010105D+00
  0.2567890000D+02  0.5947970261D+00
  0.3740040000D+01  0.2808020123D+00
 s    3  1.00
  0.4211750000D+02  0.1138890124D+00
  0.9628370000D+01  0.9208111006D+00
  0.2853320000D+01 -0.3274470358D-02
 s    1  1.00
  0.9056610000D+00  0.1000000000D+01
 s    1  1.00
  0.2556110000D+00  0.1000000000D+01
 p    3  1.00
  0.4211750000D+02  0.3651139738D-01
  0.9628370000D+01  0.2371529830D+00
  0.2853320000D+01  0.8197019412D+00
 p    1  1.00
  0.9056610000D+00  0.1000000000D+01
 p    1  1.00
  0.2556110000D+00  0.1000000000D+01
 d    1  1.00
  0.1292000000D+01  0.1000000000D+01
  
   5 0
 s    3  1.00
  0.3386500000D+02  0.2549381454D-01
  0.5094790000D+01  0.1903731086D+00
  0.1158790000D+01  0.8521614860D+00
 s    1  1.00
  0.3258400000D+00  0.1000000000D+01
 s    1  1.00
  0.1027410000D+00  0.1000000000D+01
 p    1  1.00
  0.7500000000D+00  0.1000000000D+01
  
   6 0
 s    3  1.00
  0.3386500000D+02  0.2549381454D-01
  0.5094790000D+01  0.1903731086D+00
  0.1158790000D+01  0.8521614860D+00
 s    1  1.00
  0.3258400000D+00  0.1000000000D+01
 s    1  1.00
  0.1027410000D+00  0.1000000000D+01
 p    1  1.00
  0.7500000000D+00  0.1000000000D+01


[MO]
 Sym=      1.1
 Ene=     -20.5725
 Spin= Alpha
 Occup=    2.000000
1 -0.000020030901900
2 -0.000024475376238
3 0.000063427017755
4 -0.000234453519429
5 -0.000005813425732
6 -0.000001985539280
7 -0.000010086540040
8 0.000023146015144
9 0.000008026294787
10 0.000037302418050
11 0.000000363681809
12 0.000003463795047
13 -0.000134678545803
14 -0.000004652543152
15 0.000005279149305
16 -0.000000626606153
17 -0.000005361465570
18 -0.000001670617841
19 -0.000000626149285
20 -0.000030617173025
21 0.000157613985562
22 0.000198122592217
23 -0.000003822005259
24 -0.000001574953000
25 0.000030807715833
26 0.000003369090565
27 0.000051910835245
28 -0.000076621868378
29 0.000016113985020
30 0.000006055387611
31 0.000014040354371
32 0.55142844832725
33 0.47167028125438
34 0.005610666918459
35 -0.000540718968154
36 0.001156359589312
37 0.000445874065413
38 0.001161053304480
39 -0.000402025431250
40 -0.000154301933006
41 -0.000448299683626
42 0.000048716491136
43 0.000017264065245
44 0.000162890426684
45 0.000031890231633
46 -0.000073605172654
47 0.000041714941021
48 0.000059476224476
49 -0.000066411850592
50 -0.000028822893107
51 0.000194852439255
52 0.000123913659693
53 0.000055435089340
54 0.000022769520084
55 -0.000064649268742
56 -0.000028015388485
57 0.000194794654178
58 0.000124446523944
59 0.000055036930739
60 -0.000028509162631
61 0.000063230047686
62 -0.000026249615337
 Sym=      2.1
 Ene=     -20.5082
 Spin= Alpha
 Occup=    2.000000
1 0.55142512411531
2 0.47167109113722
3 0.005620088602957
4 -0.000574338144135
5 -0.001338433089658
6 -0.000554579101306
7 0.000912755890314
8 0.000471882643271
9 0.000194636510597
10 -0.000285994366116
11 -0.000073549316648
12 -0.000028612206061
13 -0.000026893552770
14 -0.000032449419159
15 0.000087491818331
16 -0.000055042399172
17 -0.000063977979954
18 -0.000046574334804
19 -0.000013953825916
20 0.000196435096533
21 0.000116869446127
22 0.000236689443626
23 -0.000027455310079
24 -0.000009371241335
25 -0.000059198143683
26 0.000207664598560
27 0.000111890446624
28 0.000042644704089
29 0.000052762951596
30 0.000019636660534
31 0.000055960494342
32 0.000020604642896
33 0.000015692309218
34 0.000018031789062
35 -0.000062911138411
36 0.000002369285995
37 0.000000791712586
38 0.000010614633975
39 -0.000009493991268
40 -0.000003296544515
41 -0.000032036887785
42 0.000003913010877
43 0.000000541049184
44 0.000087815869208
45 0.000002095723869
46 -0.000001409781105
47 -0.000000685942764
48 0.000001964721017
49 0.000000732481128
50 0.000000308386633
51 -0.000003879426601
52 0.000022713075539
53 -0.000035390773017
54 -0.000000216464553
55 -0.000000752045995
56 -0.000011725270745
57 -0.000004015145670
58 0.000023509812635
59 -0.000035990245436
60 -0.000000909409308
61 0.000000720872053
62 -0.000011804163798
 Sym=      3.1
 Ene=      -1.3786
 Spin= Alpha
 Occup=    2.000000
1 -0.006522048493046
2 -0.010840736821381
3 0.030077414773211
4 0.022613854274998
5 -0.001461507218935
6 -0.000635503229181
7 0.002447511880557
8 -0.002737278935909
9 -0.001155262147731
10 0.003040123045489
11 -0.000840561925635
12 -0.000398847022018
13 0.003260838847571
14 0.000049881247598
15 -0.000499691734422
16 0.000449810486824
17 0.000298402567936
18 0.000037883303655
19 -0.000011049489570
20 0.008543381448332
21 0.006507228929135
22 -0.001460942910014
23 -0.000035520109554
24 0.000022936070731
25 -0.001710283277067
26 0.005215541924570
27 0.003050078967030
28 0.001621300293402
29 0.001102679830474
30 0.000427659314466
31 0.000430960992110
32 -0.11342293522320
33 -0.18947690909519
34 0.53804565500088
35 0.37615599170642
36 0.024691564575672
37 0.009516220788731
38 0.025266831194197
39 0.041262392028642
40 0.015902762439609
41 0.042208740977912
42 0.014046308173937
43 0.005462825946782
44 0.009580335850166
45 -0.001859055793894
46 0.004403408761184
47 -0.002544352967289
48 -0.003563150515434
49 0.005698097050055
50 0.002418276501946
51 0.095534664050151
52 0.078529703357089
53 -0.002866178523925
54 -0.000654757885608
55 -0.025688818087482
56 -0.010018862257571
57 0.095539753051295
58 0.078515526157435
59 -0.002851925534863
60 -0.018292467920878
61 0.018382585515637
62 -0.009382747764136
 Sym=      4.1
 Ene=      -1.3175
 Spin= Alpha
 Occup=    2.000000
1 -0.11316134161457
2 -0.18896819321158
3 0.53522293033867
4 0.37947032188858
5 -0.028867780543180
6 -0.011982476328122
7 0.020949223588550
8 -0.048380197907817
9 -0.020062842057010
10 0.034468957651566
11 -0.014957668548249
12 -0.006289440365107
13 0.013911994624872
14 0.002139243853476
15 -0.006695980593655
16 0.004556736740180
17 0.004773641615860
18 0.001607753121632
19 0.000285645255072
20 0.094052286524922
21 0.075048597376044
22 -0.008495496409244
23 -0.001273061900867
24 0.000139473372351
25 -0.027874046948371
26 0.097083822028338
27 0.081135970146317
28 0.000491479524692
29 0.023393918974083
30 0.009044113867263
31 0.011030307592059
32 0.007343421898506
33 0.012305147859712
34 -0.035417442775954
35 -0.022595037982215
36 -0.001824794947105
37 -0.000668158061052
38 -0.004082733462901
39 -0.002817570548078
40 -0.001051984059028
41 -0.004912635498046
42 -0.000964709632248
43 -0.000305492414635
44 -0.006014764502766
45 0.000113679716337
46 -0.000275461082083
47 0.000161781365746
48 0.000222722152481
49 -0.000477103155935
50 -0.000201735484697
51 -0.006783005143044
52 -0.006946806624966
53 0.002121905070599
54 0.000015343975930
55 0.001911520964990
56 0.000882613316236
57 -0.006782912750660
58 -0.006975234808721
59 0.002128232695103
60 0.001342889863317
61 -0.001396313131325
62 0.000840324562201
 Sym=      5.1
 Ene=      -0.7471
 Spin= Alpha
 Occup=    2.000000
1 0.000005968644323
2 0.000010552553975
3 -0.000041974226291
4 0.000042991777560
5 -0.000590252905879
6 0.001527661576483
7 0.000073312973879
8 -0.000732652727921
9 0.001896165855255
10 0.000097417624641
11 -0.001156116438286
12 0.002915616155822
13 0.000147567603851
14 0.000050339761734
15 -0.000060166234598
16 0.000009826472864
17 -0.000065923202016
18 -0.000042896120586
19 0.000096595391324
20 0.000022572113649
21 -0.000003318914514
22 -0.000059694899886
23 -0.000393972807378
24 0.000988974151628
25 0.000023271391076
26 -0.000024995401399
27 -0.000066365335373
28 0.000038722266689
29 -0.000027556058987
30 0.000040425096914
31 -0.000002622953062
32 -0.000003449643054
33 -0.000005910355442
34 0.000018550565857
35 0.000039836119264
36 -0.085034435576217
37 0.21244175665270
38 0.003070171928034
39 -0.13064548244429
40 0.32639690854528
41 0.004720236319936
42 -0.081087273732295
43 0.20259815973814
44 0.002930985402215
45 -0.012477066342228
46 0.012013212510278
47 0.000463853831951
48 0.015221266750090
49 -0.007158210536964
50 0.018634267661918
51 0.15074684371637
52 0.20548262923489
53 0.049004963360141
54 -0.009447196236750
55 -0.023895214025521
56 -0.018300837018005
57 -0.15074281409460
58 -0.20552816832472
59 -0.049007129521916
60 0.023507406095242
61 -0.011223454037570
62 0.017802975840055
 Sym=      6.1
 Ene=      -0.6906
 Spin= Alpha
 Occup=    2.000000
1 0.000595607361833
2 0.001001063517760
3 -0.002724886842163
4 -0.001217043339363
5 0.11297846454948
6 0.040577805480109
7 0.18479759192670
8 0.17351543374114
9 0.062340990045321
10 0.28294181586264
11 0.10450763418905
12 0.037397162608550
13 0.17745192151225
14 -0.019428061334802
15 -0.002924268896280
16 0.022352330231082
17 -0.008688205460287
18 -0.009609302690015
19 -0.004436319368369
20 0.14721816467956
21 0.19637076563312
22 0.062273555548925
23 0.009023906180984
24 0.004296349761850
25 -0.030461423676011
26 -0.14529899676652
27 -0.20398105701927
28 -0.057779262748347
29 -0.028237641527041
30 -0.011233376564702
31 0.000178211687159
32 -0.004067310126247
33 -0.006951970762781
34 0.021327343086111
35 0.044351524143651
36 -0.013527879887348
37 -0.004674167806778
38 -0.054333322520291
39 -0.020256356126342
40 -0.006970554268727
41 -0.083496428284686
42 -0.011286409778970
43 -0.003580103941646
44 -0.068612240185614
45 0.000387250385540
46 -0.000005679698672
47 -0.000381570686868
48 0.000273816000014
49 -0.003167357471537
50 -0.001268574111746
51 -0.018762162695539
52 -0.029341265894405
53 -0.004983243697636
54 -0.001398068092595
55 0.006251518904240
56 -0.002826404607539
57 -0.018707293224412
58 -0.029284733611178
59 -0.004977942214722
60 0.003266905202263
61 -0.005414826281095
62 -0.002996021931112
 Sym=      7.1
 Ene=      -0.6048
 Spin= Alpha
 Occup=    2.000000
1 -0.011237943770870
2 -0.018956466087694
3 0.054357040293572
4 0.10336892003443
5 0.065016002066257
6 0.025338554133431
7 0.016419713343737
8 0.095771594486902
9 0.037268834807511
10 0.027215831305300
11 0.081569241866603
12 0.031837019178370
13 0.014680200437835
14 -0.005824694548854
15 0.001181878691018
16 0.004642815857836
17 -0.003807963494918
18 -0.000150305357788
19 -0.000129788021951
20 0.009617894164073
21 0.009205831112112
22 -0.036119387531535
23 0.007120910707272
24 0.002909784806925
25 -0.004757314441414
26 -0.049508999592106
27 -0.071420114923282
28 -0.015360793601933
29 -0.007788041653839
30 -0.002986493510141
31 -0.005029526270124
32 0.034910773640189
33 0.059345293763735
34 -0.17913639649959
35 -0.30448684253549
36 0.15914382829328
37 0.061176596070226
38 0.17458336319954
39 0.23604913786514
40 0.090695745151025
41 0.26196144929514
42 0.21444540843363
43 0.082517758458731
44 0.23343817701878
45 0.001767243552654
46 -0.002315759418489
47 0.000548515865836
48 0.001955849359887
49 0.014611545450446
50 0.005788560503683
51 0.083719280542299
52 0.12816697772091
53 0.031384708294677
54 0.015491408720453
55 -0.023057010274652
56 0.005683480182841
57 0.083732391051389
58 0.12826819481124
59 0.031371103442969
60 -0.004645843824335
61 0.027229816581775
62 0.006401668159694
 Sym=      8.1
 Ene=      -0.5466
 Spin= Alpha
 Occup=    2.000000
1 -0.032340251256715
2 -0.055021803100499
3 0.16684825601341
4 0.27512481741566
5 0.16776986336225
6 0.069385449665669
7 -0.11489948699292
8 0.24907972432104
9 0.10295755847477
10 -0.16842658988729
11 0.22195505096923
12 0.092066056691879
13 -0.16453800004982
14 -0.006563207963516
15 0.007876263161048
16 -0.001313055197532
17 -0.008145063073988
18 0.008080022663313
19 0.003539795724879
20 -0.069133538638092
21 -0.10322285691837
22 -0.011347361094032
23 0.017341307679676
24 0.006553158908978
25 0.014968993723697
26 -0.079517987000780
27 -0.13428758382800
28 -0.026860054901436
29 -0.008177803376230
30 -0.002689929711247
31 -0.023942557837852
32 -0.009671547762525
33 -0.016514582103335
34 0.051341003774316
35 0.076382842650511
36 -0.12920458531626
37 -0.052599788558471
38 0.061468071609517
39 -0.19418434549078
40 -0.079050866718233
41 0.092259240443393
42 -0.19407593733068
43 -0.079259610663628
44 0.10965365139476
45 -0.005919887926199
46 0.000260902988508
47 0.005658984937690
48 -0.003340839664213
49 -0.002835832205019
50 -0.001203710690433
51 -0.017291142482021
52 -0.030233037558763
53 -0.007158378134949
54 -0.013781854755626
55 0.001136923197838
56 0.008365923105723
57 -0.017309546440655
58 -0.030219205609482
59 -0.007246750632576
60 -0.009110664510873
61 -0.010541056336324
62 0.008198224470837
 Sym=      9.1
 Ene=      -0.5247
 Spin= Alpha
 Occup=    2.000000
1 0.015212921625111
2 0.025926774243733
3 -0.079956378810705
4 -0.13112077217203
5 -0.082696146128615
6 -0.035716409862190
7 0.10175954832780
8 -0.12204861574434
9 -0.052743669025028
10 0.15196636401476
11 -0.11604302210432
12 -0.050108705562561
13 0.13644386732845
14 0.001157065292109
15 -0.005092168963608
16 0.003935103671499
17 0.003645407536686
18 -0.006282068864224
19 -0.002806246208910
20 0.054141670938819
21 0.094414122596461
22 -0.033185445354397
23 -0.010911957735824
24 -0.004037230353334
25 -0.015394258652689
26 0.026994513482636
27 0.044316737706302
28 0.019886701923993
29 0.000581915588587
30 -0.000184972502684
31 0.016104911700567
32 0.003414902838937
33 0.005782096516824
34 -0.015776619963458
35 -0.040931697271063
36 -0.15183429466240
37 -0.063556786633124
38 0.19170818674857
39 -0.22793426094650
40 -0.095428135722800
41 0.28865553440045
42 -0.24947163948858
43 -0.10412319513390
44 0.29620808119676
45 -0.010382756272538
46 -0.001815760664412
47 0.012198516936950
48 -0.004747909102084
49 0.001723265260915
50 0.000478514274449
51 0.007376353100089
52 0.015742188574114
53 0.009789964906298
54 -0.015661954257521
55 -0.010666108326551
56 0.018843214206683
57 0.007397319196294
58 0.015762069507398
59 0.009834861506170
60 -0.018514149198464
61 -0.003558088346185
62 0.018949412403124
 Sym=     10.1
 Ene=      -0.4706
 Spin= Alpha
 Occup=    2.000000
1 0.000000728089071
2 0.000002610158263
3 -0.000040197380684
4 0.000226492672353
5 -0.10734268630273
6 0.26972030546363
7 0.006531592216822
8 -0.16036998939231
9 0.40291412694060
10 0.009747011565134
11 -0.17396048035163
12 0.43719369966451
13 0.010680976888441
14 0.008178449368534
15 -0.008543761420787
16 0.000365312052253
17 -0.009908073476550
18 -0.003699714810619
19 0.008457286393038
20 0.000036902680143
21 0.000027091595864
22 -0.000598191649978
23 -0.010948714283205
24 0.027495833799358
25 0.000659056050495
26 0.000004418674122
27 -0.000026525168479
28 0.000190655441467
29 -0.011603346012806
30 0.029142511410315
31 0.000700304520305
32 0.000036544518304
33 0.000063292091612
34 -0.000214915981878
35 -0.000174715481613
36 0.000884335112902
37 -0.002731342833630
38 0.000353295887195
39 0.001273571205259
40 -0.003954924720991
41 0.000591840653405
42 -0.003277986736302
43 0.007388525194981
44 0.000543588417078
45 -0.000233279301298
46 0.000207337140734
47 0.000025942160564
48 0.000247254780065
49 0.000015898254051
50 0.000000979628254
51 -0.000865945285359
52 -0.017499355600501
53 0.017213537740035
54 0.000997870736417
55 0.001331155936836
56 0.001197350952975
57 0.000982559589540
58 0.017421087768940
59 -0.016732969926509
60 -0.001716107576192
61 0.000296842665251
62 -0.001059481625610
 Sym=     11.1
 Ene=       0.1335
 Spin= Alpha
 Occup=    0.000000
1 0.011626567388155
2 0.019541336058077
3 -0.051800551308979
4 -0.17043774282653
5 0.017367457185312
6 0.007285686659547
7 -0.021341975992101
8 0.021220620030020
9 0.009192206746895
10 -0.039079671630100
11 0.051107899108017
12 0.019988781269671
13 0.004977393207108
14 -0.001000085393235
15 -0.000288937963307
16 0.001289023356542
17 -0.000426188926380
18 0.001422083751463
19 0.000548817336294
20 0.010480364047378
21 -0.058144114657406
22 0.069002416940962
23 0.001563389066187
24 0.000325212392118
25 0.009295450095058
26 0.012801665755233
27 -0.045360429479984
28 0.33282400740922
29 -0.002028783479840
30 -0.000650049336222
31 -0.007180363214380
32 0.034162759492845
33 0.056164972981793
34 -0.11536380777699
35 -0.82003698598880
36 -0.043597845879929
37 -0.016783557381782
38 -0.040719220565983
39 -0.069058545556990
40 -0.026658399102332
41 -0.062086414662507
42 -0.12550441827743
43 -0.048211103516778
44 -0.12821013831433
45 -0.000150205806447
46 -0.000797040519598
47 0.000947246326044
48 0.000436979156493
49 -0.004265921495782
50 -0.001744160722588
51 0.034360745586153
52 -0.049514581377365
53 0.78793710360941
54 -0.003753490516131