[Molden Format]
[Molpro variables]
_NUMVAR=  1088.000000000000    
_AVOGAD= 0.6022140760000000E+24
_BOLTZ= 0.1380649000000000E-22
_CLIGHTSI=  299792458.0000000    
_JOULE= 0.4359744722207100E-17
_JPCAL=  4.184000000000000    
_PLANCK= 0.6626070150000000E-33
_BOHR= 0.5291772109030000E-10
_ECHARG= 0.1602176634000000E-18
_ENULL= 0.8854187812800001E-11
_MU= 0.1660539066600000E-26
_EMASS= 0.9109383701500001E-30
_AMU2AU=  1822.888486217313    
_CLIGHT=  29979245800.00000    
_EV= 0.3674932217565494E-01
_KJOULE= 0.3808798847133432E-03
_KJOULE/MOL= 0.3808798847133432E-03
_CM= 0.4556335252912009E-05
_CM-1= 0.4556335252912009E-05
_DEB2SI= 0.3335640951981520E-29
_KCAL= 0.1593601437640628E-02
_KCAL/MOL= 0.1593601437640628E-02
_KELVIN= 0.3166811563455608E-05
_HERTZ= 0.1519829846057038E-15
_HZ= 0.1519829846057038E-15
_TOA= 0.5291772109030000    
_TOANG= 0.5291772109030000    
_TORAD= 0.1745329251994330E-01
_TOCM=  219474.6313631965    
_TODEBYE=  2.541746473194078    
_TOE= 0.4803204712570263E-09
_TOEV=  27.21138624598803    
_TOHERTZ=  6579683920501656.    
_TOHZ=  6579683920501656.    
_TOK=  315775.0248040668    
_TOKCAL=  627.5094740630558    
_TOKELVIN=  315775.0248040668    
_TOKJ=  2625.499639479825    
_TOKJOULE=  2625.499639479825    
_TOKG= 0.1660539066600000E-26
_ANG=  1.889726124625770    
_ANGSTROM=  1.889726124625770    
_RPAREF=  0.000000000000000    
_RPADISS=  0.000000000000000    
_IGNORE_UNDEF=  2.000000000000000    
_STRICTCHECK=  0.000000000000000    
!SEWARD=  0.000000000000000    
!MULTI=  0.000000000000000    
!DFMULTI=  0.000000000000000    
!NUMHESS=  0.000000000000000    
_SEW_ONEEL=  0.000000000000000    
_CPPDONE=FALSE
_DKROLL_DONE=  0.000000000000000    
_FNUC_DONE=  0.000000000000000    
_FOCKDONE=TRUE
_GRADONE=FALSE
_HESSDONE=TRUE
_INTDONE=TRUE
_SCFDONE=TRUE
_MODUL_BLOCK=FALSE
_MODUL_SLATER=TRUE
_MODUL_MRCC=FALSE
_MODUL_NBO6=FALSE
_MODUL_NECI=FALSE
_MODUL_AIMS=TRUE
_MODUL_HDF5=FALSE
_MODUL_GECCO=FALSE
_ISWINDOWS=FALSE
_MRCC_EXEC=
_FITC_AO_SAVED=FALSE
_FITC_MO_SAVED=FALSE
_LSTYP=SEWARD
_INTYP=INTS
_GEOMTYP=XYZ
_GRADTYP=ALASKA
_DIRECT=FALSE
_DKHO= -1.000000000000000    
_FNUC=  0.000000000000000    
_SYNCM=  0.000000000000000    
_BASIS=6-311G(D,P)
_ZCENTRE=MASS
_ZORIENT=  1.000000000000000    
_NELEC=  20.00000000000000    
!SPIN=  0.000000000000000    
_OPTCONV= 0.4348160399687257E-02
_QSDSTEP=  0.000000000000000    
_QSDIRC=  0.000000000000000    
_PROGRAM=FREQ
_CPUSTEP=  3.500000000000000    
_SYSSTEP= 0.1700000000000000    
_WALLSTEP=  3.670000000000000    
!DFSCF=  0.000000000000000    
!SCSGRD=  0.000000000000000    
_NCEN=  8.000000000000000    
_CPUTOT=  7.420000000000000    
_DFTEXFAC=  1.000000000000000    
_DMX=  0.000000000000000    
_DMY=  0.000000000000000    
_DMZ=  0.000000000000000    
_DMX_SCF=  0.000000000000000    
_DMY_SCF=  0.000000000000000    
_DMZ_SCF=  0.000000000000000    
_FREQUENCIES= 0.4147577339101856E-04
_HOMO=  4.100000000000000    
_EHOMO=-0.4163651914297783    
_LUMO=  5.100000000000000    
_ELUMO= 0.1542645012324524    
_ENERGY= -112.4259041157542    
_ENERGY_METHOD=HF
_ENERGY_BASIS=6-311G(D,P)
_GEOMETRY_METHOD=HF
_GEOMETRY_BASIS=6-311G(D,P)
_ENUC=  39.94972161767788    
_GRADENERG= -112.4259034658186    
_GRADEXFAC=  9999.000000000000    
_GRADMETHOD=  1.000000000000000    
_NMRMETHOD=  0.000000000000000    
_NMRMAGNET=  0.000000000000000    
_VIRIAL= 0.3748211544787376E-03
!GRID_FREEZE= -1.000000000000000    
!NEESE_INDEX=  0.000000000000000    
_ITERATIONS=  10.00000000000000    
_LASTNELEC=  20.00000000000000    
_LASTSPIN=  0.000000000000000    
_LASTSYM=  1.000000000000000    
_MPP_PROG=  0.000000000000000    
_MSNSTATES=  0.000000000000000    
_RS2PHASE=  0.000000000000000    
_NPROC_MPP=  1.000000000000000    
_NPROC_SMP=  6.000000000000000    
_NUMSTEP=  0.000000000000000    
_OPTCONVMX= 0.2573361834012634E-02
_OPTCONVRMS= 0.1775129049834990E-02
_OPTGRAD= 0.1991054051806924E-03
_OPTGRADMX= 0.1230609902569722E-03
_OPTGRADRMS= 0.8128444128713245E-04
!GMAXLAST= 0.1230609902569722E-03
!DMAXLAST= 0.2573361834012634E-02
!DELAST= 0.1906387609551530E-05
_OPTSTEP=  6.000000000000000    
_ORBITAL=  2100.200000000000    
_PI=  3.141592653589793    
_SEIG_MIN= 0.1083766150090433E-01
_SEWPROP=TRUE
_STATUS=  1.000000000000000    
_SYSTOT= 0.5900000000000001    
_VERSION=  2024001.000000000    
_WALLTOT=  8.010000000000000    
_ZPE= 0.7560520923395404E-01
_DATE=18-Sep-24
_LASTORB=0
_OUTPUT=/home/lme/Theoretische_Chemie/Nomodeco/ase_integration/nh3_dimer/Ammonia_dimer.molpro/run/Ammonia_dimer_1.molpro/Ammonia_dimer_1.out
_PGROUP=C2h
_TIME=11:41:38
_LIBMOL=/usr/local/molpro/molpro_2024.1.0_sockets/lib/
_VIGRDC=  0.000000000000000    
!VIBCNT=  0.000000000000000    
!SURFREC=  0.000000000000000    
!XSURFREC=  0.000000000000000    
!XPOLYREC=  0.000000000000000    
!ROTREC=  0.000000000000000    
!POLYREC=  0.000000000000000    
!DIPREC=  0.000000000000000    
!DIP4DREC=  0.000000000000000    
!DIPROT=  0.000000000000000    
!DIP4DROT=  0.000000000000000    
!PTREC=  0.000000000000000    
!PT4DREC=  0.000000000000000    
!VSCFREC=  0.000000000000000    
!VCIREC=  0.000000000000000    
!PVCIREC=  0.000000000000000    
!VMP2REC=  0.000000000000000    
!VMCSCFREC=  0.000000000000000    
!VMRCIREC=  0.000000000000000    
!VIBSTATEREC=  0.000000000000000    
!VIBSTATECNT=  0.000000000000000    
!VIBINFO=  0.000000000000000    
!GAREC=  0.000000000000000    
!SCFORB=  21002.00000000000    
!DEFCORE=  1.000000000000000    
!SCORE=  0.000000000000000    
!NEWMOL=  0.000000000000000    
!NEWSYM=  0.000000000000000    
_SLFILES=slscratch
_NGSSTO=  9.000000000000000    
_SIN=SIN
_COS=COS
_TAN=TAN
_ACOS=ACOS
_ASIN=ASIN
_ATAN=ATAN
_COSH=COSH
_SINH=SINH
_TANH=TANH
_ABS=ABS
_MOD=MOD
_ERF=ERF
_REFC=REFC
_ERFC=ERFC
_HYPOT=HYPOT
_J0=J0
_J1=J1
_JN=JN
_GAMMA=GAMMA
_LGAMMA=LGAMMA
_Y0=Y0
_Y1=Y1
_YN=YN
_EXP=EXP
_LOG=LOG
_LOG10=LOG10
_SQRT=SQRT
_INT=INT
_NINT=NINT
_MAX=MAX
_MIN=MIN
_COSMO=  0.000000000000000    
_COSMOIT=  0.000000000000000    
_COSMOES=  0.000000000000000    
_COSMOEDS=  0.000000000000000    
_COSMOEC=  0.000000000000000    
_COSMOEDCORR=  0.000000000000000    
_FEPSI=  1.000000000000000    
_SL_IsMM=  0.000000000000000    
_SL_NSYM=  4.000000000000000    
_SL_System_BitSw=  0.000000000000000    
_SL_Unique_atoms=  0.000000000000000    
_SL_GRAD=  0.000000000000000    
_SL_MAXUPD_Hess=  5.000000000000000    
_SL_N_PRINT_COD=  5.000000000000000    
_SL_PRINT_CODES=  0.000000000000000    
_SL_BasType=  0.000000000000000    
_SL_Energy_Pred=  0.000000000000000    
_SL_New_Coords=  0.000000000000000    
_SL_Total_Nuclea=  0.000000000000000    
_SL_Highest_Mltp=  0.000000000000000    
_SL_Ref_Geom=  0.000000000000000    
_SL_Symmetry_ope=  1.000000000000000    
_SL_agrad=  0.000000000000000    
_SL_GrdMax=  0.000000000000000    
_SL_GrdNorm=  0.000000000000000    
_SL_GrdRMS=  0.000000000000000    
_SL_Hss_Q=  0.000000000000000    
_SL_Hss_X=  0.000000000000000    
_SL_BMxOld=  0.000000000000000    
_SL_KtB=  0.000000000000000    
_SL_TROld=  0.000000000000000    
_SL_No_of_Intern=  0.000000000000000    
_SL_Hess=  0.000000000000000    
_SL_K=  0.000000000000000    
!LATTICE= -1.000000000000000    
!NEWLATTICE=  0.000000000000000    
!LATGRAD_VAR=FALSE
!SEW_LATTICE=  1.000000000000000    
!AIC_ONEEL=  0.000000000000000    
!LOCAL=  0.000000000000000    
!SAVEDOM= -1.000000000000000    
!RESTDOM= -1.000000000000000    
!SAVEDOM_HF= -1.000000000000000    
!RESTDOM_HF= -1.000000000000000    
!HESSREC=  5300.200000000000    
!FREQREC=  5400.200000000000    
!NMODREC=  5450.200000000000    
!GTASKS=  0.000000000000000    
!HTASKS=  0.000000000000000    
!SAVEDOM_EOM= -1.000000000000000    
!RESTDOM_EOM= -1.000000000000000    
!GRADSTATE= -1.000000000000000    
!DEBUG=  0.000000000000000    
!CFIT_CPHF=  0.000000000000000    
!RDOMAUX_CPHF=  0.000000000000000    
!THRAO_CPHF= 0.1000000000000000E-11
!THRMO_CPHF= 0.1000000000000000E-11
!THROV_CPHF= 0.1000000000000000E-13
!THRSW_CPHF= 0.1000000000000000E-11
!THRPROD_CPHF= 0.1000000000000000E-11
!THRAOPR_CPHF= 0.1000000000000000E-11
!CFIT_SCFGRD=  0.000000000000000    
!RDOMAUX_SCFGRD=  0.000000000000000    
!THRAO_SCFGRD= 0.1000000000000000E-11
!THRMO_SCFGRD= 0.1000000000000000E-11
!THROV_SCFGRD= 0.1000000000000000E-13
!THRSW_SCFGRD= 0.1000000000000000E-11
!THRPROD_SCFGRD= 0.1000000000000000E-11
!THRAOPR_SCFGRD= 0.1000000000000000E-11
!LOCFIT_SCF=  0.000000000000000    
!LOCFIT_MP2=  0.000000000000000    
_RIDOM=  0.000000000000000    
!CC2_METHOD=  0.000000000000000    
_BASIS2006=FALSE
_SVDDEL= -1.000000000000000    
_SVDDELA= -1.000000000000000    
_SVDDELP= -1.000000000000000    
_SVDDELF= -1.000000000000000    
_SVDDELS= -1.000000000000000    
_SVDDEL_ABS= -1.000000000000000    
_SVDDELA_ABS= -1.000000000000000    
_SVDDELP_ABS= -1.000000000000000    
_SVDDELF_ABS= -1.000000000000000    
_SVDDELS_ABS= -1.000000000000000    
_MAXBASIS=  0.000000000000000    
!OPT_CONICAL=  0.000000000000000    
!CLEARSP_JGRID=  0.000000000000000    
_GRDHYBR=  0.000000000000000    
_STATEGRAD=  1.000000000000000    
_4EXT_NDISKS=  1.000000000000000    
!EMBEDFLAG=  1.000000000000000    
!EMBED=FALSE
!EMBED_F12=FALSE
!EMBEDNUC=  0.000000000000000    
_EMBEDENERGY=  0.000000000000000    
!EMBED_DFC=FALSE
!NUM_VOIDS=  0.000000000000000    
_IBODY=  0.000000000000000    
_EMBE_CORR=  0.000000000000000    
!EMBED_PROJ=FALSE
!EMB_PROJ_ZMU=  1000000.000000000    
!CORRECTION_HF=  0.000000000000000    
!EMBED_AORB=  0.000000000000000    
!EMBED_NACORR=  0.000000000000000    
!EMBED_MP2=FALSE
!EMBED_TRUNC_PERTURBATION=FALSE
!EMBED_FROZEN=  0.000000000000000    
!EMBED_ACTIVE=  0.000000000000000    
_CHANGE_BASIS=FALSE
_RESTORE_BASIS=FALSE
_FIX_EMBED_GUESS=FALSE
_EMBED_SCF=FALSE
_NEOBAS=FALSE
_NEOOVE=FALSE
_PRINEO=FALSE
_HUZINAGA_T=FALSE
_HUZINAGA_F=FALSE
_HUZINAGA=FALSE
_HUZINAGA_CORRECT=FALSE
!FASTLATGRAD=  1.000000000000000    
!FASTVLAMBDA= -1.000000000000000    
!IFORCE= -1.000000000000000    
!USESYM= -1.000000000000000    
_SINDEX=  0.000000000000000    
_AVDOM_OSV=  0.000000000000000    
_AVDOM_PNO=  0.000000000000000    
_AVDOM_PNOCC=  0.000000000000000    
_AVDOM_TNO=  0.000000000000000    
_AVDOM_TNOIT=  0.000000000000000    
_AVDOM_PAO=  0.000000000000000    
_AVDOM_LMO=  0.000000000000000    
_CC2OSV_FLAG=  0.000000000000000    
_EOMCCSD_CONV=FALSE
_TMADC2_FLAG=FALSE
_PROPADC2_FLAG=FALSE
_LEN_VirQ=  0.000000000000000    
_GRDCC2LR_FLAG=FALSE
_GRDADC2_FLAG=FALSE
_RO_VGLOBAL=  0.000000000000000    
_OPT=FALSE
_FREQ=FALSE
_HESS=FALSE
_CMRCC_callName=EMPTY
_CMRCC_callCount=  0.000000000000000    
_GECCO_CIROOT=  1.000000000000000    
_SYM_CATION=  1.000000000000000    
_MON_A=FALSE
_MON_B=FALSE
_MAXGEOM=  100.0000000000000    
!MAXGEOM=  100.0000000000000    
_NCORE=  0.000000000000000    
_NLARGECORE=  0.000000000000000    
GX1= 0.4724670630577869E-01
GY1= -1.643840533494114    
GZ1=  0.000000000000000    
GX2=-0.1093863658461919    
GY2= -2.215511148456397    
GZ2=-0.8067011077232731    
GX3=-0.1093863658461919    
GY3= -2.215511148456397    
GZ3= 0.8067011077232731    
GX4=-0.6458749208882107    
GY4=-0.9203416878528979    
GZ4=  0.000000000000000    
GX5=-0.4724670630577869E-01
GY5=  1.643840533494114    
GZ5=  0.000000000000000    
GX6= 0.1093863658461919    
GY6=  2.215511148456397    
GZ6=-0.8067011077232731    
GX7= 0.6458749208882107    
GY7= 0.9203416878528979    
GZ7=  0.000000000000000    
GX8= 0.1093863658461919    
GY8=  2.215511148456397    
GZ8= 0.8067011077232731    
NX1= 0.8928333520855111E-01
NY1= -3.106408400862591    
NZ1=  0.000000000000000    
HX2=-0.2067102732174210    
HY2= -4.186709296637697    
HZ2= -1.524444158029217    
HX3=-0.2067102732174210    
HY3= -4.186709296637697    
HZ3=  1.524444158029217    
HX4= -1.220526711243054    
HY4= -1.739193731117798    
HZ4=  0.000000000000000    
NX5=-0.8928333520855111E-01
NY5=  3.106408400862591    
NZ5=  0.000000000000000    
HX6= 0.2067102732174210    
HY6=  4.186709296637697    
HZ6= -1.524444158029217    
HX7=  1.220526711243054    
HY7=  1.739193731117798    
HZ7=  0.000000000000000    
HX8= 0.2067102732174210    
HY8=  4.186709296637697    
HZ8=  1.524444158029217    
[Atoms] Angs
N     1    7         0.0472467063       -1.6438405335        0.0000000000
H     2    1        -0.1093863658       -2.2155111485       -0.8067011077
H     3    1        -0.1093863658       -2.2155111485        0.8067011077
H     4    1        -0.6458749209       -0.9203416879        0.0000000000
N     5    7        -0.0472467063        1.6438405335        0.0000000000
H     6    1         0.1093863658        2.2155111485       -0.8067011077
H     7    1         0.6458749209        0.9203416879        0.0000000000
H     8    1         0.1093863658        2.2155111485        0.8067011077
[GTO]
   1 0
 s    6  1.00
  0.6293480000D+04  0.1969788147D-02
  0.9490440000D+03  0.1496128592D-01
  0.2187760000D+03  0.7350053084D-01
  0.6369160000D+02  0.2489367658D+00
  0.1882820000D+02  0.6024594331D+00
  0.2720230000D+01  0.2562017589D+00
 s    3  1.00
  0.3063310000D+02  0.1119060795D+00
  0.7026140000D+01  0.9216666549D+00
  0.2112050000D+01 -0.2569191826D-02
 s    1  1.00
  0.6840090000D+00  0.1000000000D+01
 s    1  1.00
  0.2008780000D+00  0.1000000000D+01
 p    3  1.00
  0.3063310000D+02  0.3831191864D-01
  0.7026140000D+01  0.2374031155D+00
  0.2112050000D+01  0.8175923978D+00
 p    1  1.00
  0.6840090000D+00  0.1000000000D+01
 p    1  1.00
  0.2008780000D+00  0.1000000000D+01
 d    1  1.00
  0.9130000000D+00  0.1000000000D+01
  
   5 0
 s    6  1.00
  0.6293480000D+04  0.1969788147D-02
  0.9490440000D+03  0.1496128592D-01
  0.2187760000D+03  0.7350053084D-01
  0.6369160000D+02  0.2489367658D+00
  0.1882820000D+02  0.6024594331D+00
  0.2720230000D+01  0.2562017589D+00
 s    3  1.00
  0.3063310000D+02  0.1119060795D+00
  0.7026140000D+01  0.9216666549D+00
  0.2112050000D+01 -0.2569191826D-02
 s    1  1.00
  0.6840090000D+00  0.1000000000D+01
 s    1  1.00
  0.2008780000D+00  0.1000000000D+01
 p    3  1.00
  0.3063310000D+02  0.3831191864D-01
  0.7026140000D+01  0.2374031155D+00
  0.2112050000D+01  0.8175923978D+00
 p    1  1.00
  0.6840090000D+00  0.1000000000D+01
 p    1  1.00
  0.2008780000D+00  0.1000000000D+01
 d    1  1.00
  0.9130000000D+00  0.1000000000D+01
  
   2 0
 s    3  1.00
  0.3386500000D+02  0.2549381454D-01
  0.5094790000D+01  0.1903731086D+00
  0.1158790000D+01  0.8521614860D+00
 s    1  1.00
  0.3258400000D+00  0.1000000000D+01
 s    1  1.00
  0.1027410000D+00  0.1000000000D+01
 p    1  1.00
  0.7500000000D+00  0.1000000000D+01
  
   3 0
 s    3  1.00
  0.3386500000D+02  0.2549381454D-01
  0.5094790000D+01  0.1903731086D+00
  0.1158790000D+01  0.8521614860D+00
 s    1  1.00
  0.3258400000D+00  0.1000000000D+01
 s    1  1.00
  0.1027410000D+00  0.1000000000D+01
 p    1  1.00
  0.7500000000D+00  0.1000000000D+01
  
   6 0
 s    3  1.00
  0.3386500000D+02  0.2549381454D-01
  0.5094790000D+01  0.1903731086D+00
  0.1158790000D+01  0.8521614860D+00
 s    1  1.00
  0.3258400000D+00  0.1000000000D+01
 s    1  1.00
  0.1027410000D+00  0.1000000000D+01
 p    1  1.00
  0.7500000000D+00  0.1000000000D+01
  
   8 0
 s    3  1.00
  0.3386500000D+02  0.2549381454D-01
  0.5094790000D+01  0.1903731086D+00
  0.1158790000D+01  0.8521614860D+00
 s    1  1.00
  0.3258400000D+00  0.1000000000D+01
 s    1  1.00
  0.1027410000D+00  0.1000000000D+01
 p    1  1.00
  0.7500000000D+00  0.1000000000D+01
  
   4 0
 s    3  1.00
  0.3386500000D+02  0.2549381454D-01
  0.5094790000D+01  0.1903731086D+00
  0.1158790000D+01  0.8521614860D+00
 s    1  1.00
  0.3258400000D+00  0.1000000000D+01
 s    1  1.00
  0.1027410000D+00  0.1000000000D+01
 p    1  1.00
  0.7500000000D+00  0.1000000000D+01
  
   7 0
 s    3  1.00
  0.3386500000D+02  0.2549381454D-01
  0.5094790000D+01  0.1903731086D+00
  0.1158790000D+01  0.8521614860D+00
 s    1  1.00
  0.3258400000D+00  0.1000000000D+01
 s    1  1.00
  0.1027410000D+00  0.1000000000D+01
 p    1  1.00
  0.7500000000D+00  0.1000000000D+01


[MO]
 Sym=      1.3
 Ene=     -15.5196
 Spin= Alpha
 Occup=    2.000000
1 0.39429385155813
2 0.33110485625526
3 0.003556754547505
4 -0.000389823114625
5 -0.001157985887656
6 -0.000535793029686
7 0.0
8 0.000415720509163
9 0.000216197276564
10 0.0
11 -0.000066030138235
12 -0.000013663296794
13 0.0
14 0.000047955175023
15 -0.000007796676424
16 -0.000040158498599
17 0.000026992811517
18 0.0
19 0.0
20 -0.39429385155813
21 -0.33110485625526
22 -0.003556754547505
23 0.000389823114625
24 -0.001157985887656
25 -0.000535793029686
26 0.0
27 0.000415720509163
28 0.000216197276564
29 0.0
30 -0.000066030138235
31 -0.000013663296794
32 0.0
33 -0.000047955175023
34 0.000007796676424
35 0.000040158498599
36 -0.000026992811517
37 0.0
38 0.0
39 0.000194271466423
40 0.000079162713915
41 0.000094107376317
42 -0.000029728579960
43 0.000017987063374
44 0.000045482430393
45 0.000194271466423
46 0.000079162713915
47 0.000094107376317
48 -0.000029728579960
49 0.000017987063374
50 -0.000045482430393
51 -0.000194271466423
52 -0.000079162713915
53 -0.000094107376317
54 -0.000029728579960
55 0.000017987063374
56 -0.000045482430393
57 -0.000194271466423
58 -0.000079162713915
59 -0.000094107376317
60 -0.000029728579960
61 0.000017987063374
62 0.000045482430393
63 0.000187294181076
64 0.000078521528483
65 -0.000024591184757
66 -0.000022284638201
67 -0.000052137496681
68 0.0
69 -0.000187294181076
70 -0.000078521528483
71 0.000024591184757
72 -0.000022284638201
73 -0.000052137496681
74 0.0
 Sym=      1.1
 Ene=     -15.5196
 Spin= Alpha
 Occup=    2.000000
1 0.39429425700402
2 0.33110584236299
3 0.003576694998338
4 -0.000651151452558
5 -0.001159691173463
6 -0.000537707231499
7 0.0
8 0.000430046333337
9 0.000218114479843
10 0.0
11 0.000015219798468
12 -0.000079625450875
13 0.0
14 0.000057524709638
15 -0.000019327971593
16 -0.000038196738045
17 0.000040840392234
18 0.0
19 0.0
20 0.39429425700402
21 0.33110584236299
22 0.003576694998338
23 -0.000651151452558
24 0.001159691173463
25 0.000537707231499
26 0.0
27 -0.000430046333337
28 -0.000218114479843
29 0.0
30 -0.000015219798468
31 0.000079625450875
32 0.0
33 0.000057524709638
34 -0.000019327971593
35 -0.000038196738045
36 0.000040840392234
37 0.0
38 0.0
39 0.000186010054485
40 0.000161159813518
41 0.000040882708106
42 -0.000033874873008
43 0.000028686776736
44 0.000059704144491
45 0.000186010054485
46 0.000161159813518
47 0.000040882708106
48 -0.000033874873008
49 0.000028686776736
50 -0.000059704144491
51 0.000186010054485
52 0.000161159813518
53 0.000040882708106
54 0.000033874873008
55 -0.000028686776736
56 0.000059704144491
57 0.000186010054485
58 0.000161159813518
59 0.000040882708106
60 0.000033874873008
61 -0.000028686776736
62 -0.000059704144491
63 0.000177606204352
64 0.000173387552790
65 0.000169651538706
66 0.000015486527796
67 -0.000070778141364
68 0.0
69 0.000177606204352
70 0.000173387552790
71 0.000169651538706
72 -0.000015486527796
73 0.000070778141364
74 0.0
 Sym=      2.1
 Ene=      -1.1381
 Spin= Alpha
 Occup=    2.000000
1 -0.075824018027364
2 -0.12536551857040
3 0.33270897747636
4 0.22952227689532
5 -0.021914344877018
6 -0.008453524101594
7 0.0
8 -0.034916871387588
9 -0.012990254640726
10 0.0
11 -0.010901011100762
12 -0.003466241268890
13 0.0
14 -0.002818892898503
15 0.001316575426103
16 0.001502317472400
17 -0.002116143980147
18 0.0
19 0.0
20 -0.075824018027364
21 -0.12536551857040
22 0.33270897747636
23 0.22952227689532
24 0.021914344877018
25 0.008453524101594
26 0.0
27 0.034916871387588
28 0.012990254640726
29 0.0
30 0.010901011100762
31 0.003466241268890
32 0.0
33 -0.002818892898503
34 0.001316575426103
35 0.001502317472400
36 -0.002116143980147
37 0.0
38 0.0
39 0.064278475684997
40 0.066932525605328
41 0.001811712449987
42 0.000851873822682
43 0.008943320309205
44 0.013777944695545
45 0.064278475684997
46 0.066932525605328
47 0.001811712449987
48 0.000851873822682
49 0.008943320309205
50 -0.013777944695545
51 0.064278475684997
52 0.066932525605328
53 0.001811712449987
54 -0.000851873822682
55 -0.008943320309205
56 0.013777944695545
57 0.064278475684997
58 0.066932525605328
59 0.001811712449987
60 -0.000851873822682
61 -0.008943320309205
62 -0.013777944695545
63 0.064971127116347
64 0.066746504552607
65 0.000903705477560
66 0.010068374245086
67 -0.012954371484007
68 0.0
69 0.064971127116347
70 0.066746504552607
71 0.000903705477560
72 -0.010068374245086
73 0.012954371484007
74 0.0
 Sym=      2.3
 Ene=      -1.1324
 Spin= Alpha
 Occup=    2.000000
1 -0.076276904607308
2 -0.12610202688377
3 0.33470368270076
4 0.23113423187006
5 -0.022131441777214
6 -0.010325472687069
7 0.0
8 -0.034953048558527
9 -0.017145663839253
10 0.0
11 -0.012057251762041
12 -0.004182859958593
13 0.0
14 -0.002799959310318
15 0.000912214348702
16 0.001887744961616
17 -0.001915035110655
18 0.0
19 0.0
20 0.076276904607308
21 0.12610202688377
22 -0.33470368270076
23 -0.23113423187006
24 -0.022131441777214
25 -0.010325472687069
26 0.0
27 -0.034953048558527
28 -0.017145663839253
29 0.0
30 -0.012057251762041
31 -0.004182859958593
32 0.0
33 0.002799959310318
34 -0.000912214348702
35 -0.001887744961616
36 0.001915035110655
37 0.0
38 0.0
39 0.065480797944707
40 0.069242162577483
41 0.002157898175601
42 0.000880933647037
43 0.008990648295208
44 0.014049540972661
45 0.065480797944707
46 0.069242162577483
47 0.002157898175601
48 0.000880933647037
49 0.008990648295208
50 -0.014049540972661
51 -0.065480797944707
52 -0.069242162577483
53 -0.002157898175601
54 0.000880933647037
55 0.008990648295208
56 -0.014049540972661
57 -0.065480797944707
58 -0.069242162577483
59 -0.002157898175601
60 0.000880933647037
61 0.008990648295208
62 0.014049540972661
63 0.062943996878147
64 0.064686467718060
65 -0.002398289047921
66 0.009998582514699
67 -0.013951419991260
68 0.0
69 -0.062943996878147
70 -0.064686467718060
71 0.002398289047921
72 0.009998582514699
73 -0.013951419991260
74 0.0
 Sym=      3.1
 Ene=      -0.6366
 Spin= Alpha
 Occup=    2.000000
1 0.000469527737248
2 0.000782534819828
3 -0.002713307572559
4 0.009644918663114
5 -0.048543453020853
6 0.13628193676323
7 0.0
8 -0.075738316810604
9 0.21238978801055
10 0.0
11 -0.048154056397157
12 0.14044828190871
13 0.0
14 0.012451072981859
15 -0.000926646985317
16 -0.011524425996542
17 -0.017647723755335
18 0.0
19 0.0
20 0.000469527737248
21 0.000782534819828
22 -0.002713307572559
23 0.009644918663114
24 0.048543453020853
25 -0.13628193676323
26 0.0
27 0.075738316810604
28 -0.21238978801055
29 0.0
30 0.048154056397157
31 -0.14044828190871
32 0.0
33 0.012451072981859
34 -0.000926646985317
35 -0.011524425996542
36 -0.017647723755335
37 0.0
38 0.0
39 -0.060991871109984
40 -0.091105993221485
41 -0.028303463719931
42 -0.004897686260776
43 0.002278826456150
44 -0.012008197118452
45 -0.060991871109984
46 -0.091105993221485
47 -0.028303463719931
48 -0.004897686260776
49 0.002278826456150
50 0.012008197118452
51 -0.060991871109984
52 -0.091105993221485
53 -0.028303463719931
54 0.004897686260776
55 -0.002278826456150
56 -0.012008197118452
57 -0.060991871109984
58 -0.091105993221485
59 -0.028303463719931
60 0.004897686260776
61 -0.002278826456150
62 0.012008197118452
63 0.11524001089224
64 0.16496314968837
65 0.049544283708456
66 0.013571278914791
67 -0.009142112156653
68 0.0
69 0.11524001089224
70 0.16496314968837
71 0.049544283708456
72 -0.013571278914791
73 0.009142112156653
74 0.0
 Sym=      1.2
 Ene=      -0.6245
 Spin= Alpha
 Occup=    2.000000
1 0.0
2 0.0
3 0.0
4 0.0
5 0.0
6 0.0
7 0.14611496311917
8 0.0
9 0.0
10 0.22793088016848
11 0.0
12 0.0
13 0.14757420636516
14 0.0
15 0.0
16 0.0
17 0.0
18 -0.012154424629431
19 -0.019932498271013
20 0.0
21 0.0
22 0.0
23 0.0
24 0.0
25 0.0
26 0.14611496311917
27 0.0
28 0.0
29 0.22793088016848
30 0.0
31 0.0
32 0.14757420636516
33 0.0
34 0.0
35 0.0
36 0.0
37 0.012154424629431
38 0.019932498271013
39 -0.10346235722145
40 -0.15131078234151
41 -0.055132846821141
42 -0.002085644724070
43 -0.012969559718017
44 -0.008282048802971
45 0.10346235722145
46 0.15131078234151
47 0.055132846821141
48 0.002085644724070
49 0.012969559718017
50 -0.008282048802971
51 -0.10346235722145
52 -0.15131078234151
53 -0.055132846821141
54 0.002085644724070
55 0.012969559718017
56 -0.008282048802971
57 0.10346235722145
58 0.15131078234151
59 0.055132846821141
60 -0.002085644724070
61 -0.012969559718017
62 -0.008282048802971
63 0.0
64 0.0
65 0.0
66 0.0
67 0.0
68 0.011101029961196
69 0.0
70 0.0
71 0.0
72 0.0
73 0.0
74 0.011101029961196
 Sym=      1.4
 Ene=      -0.6228
 Spin= Alpha
 Occup=    2.000000
1 0.0
2 0.0
3 0.0
4 0.0
5 0.0
6 0.0
7 0.14649601326851
8 0.0
9 0.0
10 0.22839642682212
11 0.0
12 0.0
13 0.14539306391855
14 0.0
15 0.0
16 0.0
17 0.0
18 -0.012118067127590
19 -0.019929328864000
20 0.0
21 0.0
22 0.0
23 0.0
24 0.0
25 0.0
26 -0.14649601326851
27 0.0
28 0.0
29 -0.22839642682212
30 0.0
31 0.0
32 -0.14539306391855
33 0.0
34 0.0
35 0.0
36 0.0
37 -0.012118067127590
38 -0.019929328864000
39 -0.10367895535555
40 -0.15433032823712
41 -0.054009146110670
42 -0.002175856043265
43 -0.013250949397289
44 -0.008434834175653
45 0.10367895535555
46 0.15433032823712
47 0.054009146110670
48 0.002175856043265
49 0.013250949397289
50 -0.008434834175653
51 0.10367895535555
52 0.15433032823712
53 0.054009146110670
54 -0.002175856043265
55 -0.013250949397289
56 0.008434834175653
57 -0.10367895535555
58 -0.15433032823712
59 -0.054009146110670
60 0.002175856043265
61 0.013250949397289
62 0.008434834175653
63 0.0
64 0.0
65 0.0
66 0.0
67 0.0
68 0.010858353445257
69 0.0
70 0.0
71 0.0
72 0.0
73 0.0
74 -0.010858353445257
 Sym=      3.3
 Ene=      -0.6091
 Spin= Alpha
 Occup=    2.000000
1 -0.001669518473447
2 -0.002776065851476
3 0.007330087932710
4 0.011315983837469
5 -0.064595424022561
6 0.13597463858124
7 0.0
8 -0.10155364263172
9 0.21061778770382
10 0.0
11 -0.070263999468868
12 0.14074967022471
13 0.0
14 0.014153540329982
15 -0.002545801682952
16 -0.011607738647031
17 -0.018545913450977
18 0.0
19 0.0
20 0.001669518473447
21 0.002776065851476
22 -0.007330087932710
23 -0.011315983837469
24 -0.064595424022561
25 0.13597463858124
26 0.0
27 -0.10155364263172
28 0.21061778770382
29 0.0
30 -0.070263999468868
31 0.14074967022471
32 0.0
33 -0.014153540329982
34 0.002545801682952
35 0.011607738647031
36 0.018545913450977
37 0.0
38 0.0
39 -0.058243303169420
40 -0.086962387506721
41 -0.032314154788858
42 -0.006252742215032
43 0.003094556594327
44 -0.011070798364319
45 -0.058243303169420
46 -0.086962387506721
47 -0.032314154788858
48 -0.006252742215032
49 0.003094556594327
50 0.011070798364319
51 0.058243303169420
52 0.086962387506721
53 0.032314154788858
54 -0.006252742215032
55 0.003094556594327
56 0.011070798364319
57 0.058243303169420
58 0.086962387506721
59 0.032314154788858
60 -0.006252742215032
61 0.003094556594327
62 -0.011070798364319
63 0.12263523566104
64 0.17120827048882
65 0.064988082111441
66 0.012759528692673
67 -0.013798327013574
68 0.0
69 -0.12263523566104
70 -0.17120827048882
71 -0.064988082111441
72 0.012759528692673
73 -0.013798327013574
74 0.0
 Sym=      4.3
 Ene=      -0.4185
 Spin= Alpha
 Occup=    2.000000
1 -0.024450634966215
2 -0.041360478745370
3 0.11941386500977
4 0.20055907471319
5 0.15805615334636
6 0.077736381120637
7 0.0
8 0.23995982134598
9 0.11602652247752
10 0.0
11 0.27883005359162
12 0.13489875620527
13 0.0
14 -0.007726364317526
15 0.002722297424362
16 0.005004066893164
17 -0.007050578387734
18 0.0
19 0.0
20 0.024450634966215
21 0.041360478745370
22 -0.11941386500977
23 -0.20055907471319
24 0.15805615334636
25 0.077736381120637
26 0.0
27 0.23995982134598
28 0.11602652247752
29 0.0
30 0.27883005359162
31 0.13489875620527
32 0.0
33 0.007726364317526
34 -0.002722297424362
35 -0.005004066893164
36 0.007050578387734
37 0.0
38 0.0
39 -0.033006573367921
40 -0.042405977439169
41 -0.009799539886396
42 0.013434999257032
43 0.002779483319816
44 -0.007808591635376
45 -0.033006573367921
46 -0.042405977439169
47 -0.009799539886396
48 0.013434999257032
49 0.002779483319816
50 0.007808591635376
51 0.033006573367921
52 0.042405977439169
53 0.009799539886396
54 0.013434999257032
55 0.002779483319816
56 0.007808591635376
57 0.033006573367921
58 0.042405977439169
59 0.009799539886396
60 0.013434999257032
61 0.002779483319816
62 -0.007808591635376
63 -0.024595650261471
64 -0.012306134359740
65 -0.088240873488759
66 0.009819343450560
67 0.008113114859337
68 0.0
69 0.024595650261471
70 0.012306134359740
71 0.088240873488759
72 0.009819343450560
73 0.008113114859337
74 0.0
 Sym=      4.1
 Ene=      -0.4164
 Spin= Alpha
 Occup=    2.000000
1 -0.021685364552211
2 -0.036837560390419
3 0.11169494046016
4 0.13332834241346
5 0.16960946779895
6 0.057679704437215
7 0.0
8 0.25418735492632
9 0.086743026939219
10 0.0
11 0.31690962914920
12 0.10911192584691
13 0.0
14 -0.008885542949852
15 0.003241745081324
16 0.005643797868528
17 -0.005080015774938
18 0.0
19 0.0
20 -0.021685364552211
21 -0.036837560390419
22 0.11169494046016
23 0.13332834241346
24 -0.16960946779895
25 -0.057679704437215
26 0.0
27 -0.25418735492632
28 -0.086743026939219
29 0.0
30 -0.31690962914920
31 -0.10911192584691
32 0.0
33 -0.008885542949852
34 0.003241745081324
35 0.005643797868528
36 -0.005080015774938
37 0.0
38 0.0
39 -0.026873675342325
40 -0.018576617921789
41 -0.018587676818103
42 0.014143194557765
43 0.002101990972059
44 -0.004059975825505
45 -0.026873675342325
46 -0.018576617921789
47 -0.018587676818103
48 0.014143194557765
49 0.002101990972059
50 0.004059975825505
51 -0.026873675342325
52 -0.018576617921789
53 -0.018587676818103
54 -0.014143194557765
55 -0.002101990972059
56 -0.004059975825505
57 -0.026873675342325
58 -0.018576617921789
59 -0.018587676818103
60 -0.014143194557765
61 -0.002101990972059
62 0.004059975825505
63 -0.037229961933919
64 -0.029709179398600
65 0.004623884453051
66 0.009380908946388
67 0.013231431561016
68 0.0
69 -0.037229961933919
70 -0.029709179398600
71 0.004623884453051
72 -0.009380908946388
73 -0.013231431561016
74 0.0
 Sym=      5.1
 Ene=       0.1543
 Spin= Alpha
 Occup=    0.000000
1 0.031974375831062
2 0.052076254195772
3 -0.088298236826514