
 Working directory              : /tmp/lme/molpro.P1ntzeTdgC/
 Global scratch directory       : /tmp/lme/molpro.P1ntzeTdgC/
 Wavefunction directory         : /home/lme/wfu/
 Main file repository           : /tmp/lme/molpro.P1ntzeTdgC/

 id        : liedlgroup

 Nodes     nprocs
 sv1-c724     1
 GA implementation: MPI file
 GA implementation (serial work in mppx): MPI file

 Using customized tuning parameters: mindgm=1; mindgv=20; mindgc=4; mindgr=1; noblas=0; minvec=7
 default implementation of scratch files=df  


 Variables initialized (1042), CPU time= 0.00 sec
 
                orient,mass
                geometry=initial.xyz
 Including file /home/lme/Theoretische_Chemie/Nomodeco/ase_integration/nh3_dimer/Ammonia_dimer.molpro/run/Ammonia_dimer_1.molpro/initial.xyz
                mass, iso
                basis=6-311g(d,p)
                {hf
                start, atden}
                optg;
                {frequencies, symm=auto, print=0, analytical}
                put, molden, Ammonia_dimer.molden
 Commands initialized (847), CPU time= 0.01 sec, 718 directives.
 Default parameters read. Elapsed time= 0.06 sec

 Checking input...
 Passed
1


                                         ***  PROGRAM SYSTEM MOLPRO  ***
                                       Copyright, TTI GmbH Stuttgart, 2015
                                    Version 2024.1 linked Wed Jan 31 11:42:09 2024


 **********************************************************************************************************************************
 LABEL *                                                                                                                                                                 
  (6 PROC) 64 bit serial version                                                         DATE: 18-Sep-24          TIME: 11:41:38  
 **********************************************************************************************************************************

 SHA1:             675817fde4514a4a933b69e420913a90cee4ef91
 **********************************************************************************************************************************

 Memory per process:        32 MW
 Total memory per node:     32 MW

 GA preallocation disabled
 GA check disabled

 Variable memory set to 32.0 MW

 ZCENTRE=MASS


 Geometry recognized as XYZ



 Using masses of most abundant isotopes

 **********************************************************************************************************************************
 SETTING BASIS          =    6-311G(D,P)


 Recomputing integrals since basis changed


 Using spherical harmonics

 Library entry N      S 6-311G               selected for orbital group  1
 Library entry N      P 6-311G               selected for orbital group  1
 Library entry N      D 6-311G*              selected for orbital group  1
 Library entry H      S 6-311G               selected for orbital group  2
 Library entry H      P 6-311G**             selected for orbital group  2


 PROGRAM * SEWARD (Integral evaluation for generally contracted gaussian basis sets)     Author: Roland Lindh, 1990

 Geometry written to block  1 of record 700

 Orientation using atomic masses  
 Molecule type: Asymmetric top,     Order of principal axis = 2
 Symmetry elements: Z,XY
 Rotational constants:       5.4527777    138.4434625      5.5506206 GHz

 Point group  C2h 



 ATOMIC COORDINATES

 NR  ATOM    CHARGE       X              Y              Z

   1  N       7.00    0.096561277   -2.983082240    0.000000000
   2  N       7.00   -0.096561277    2.983082240    0.000000000
   3  H       1.00   -0.246155661   -4.079918629   -1.529856130
   4  H       1.00   -0.246155661   -4.079918629    1.529856130
   5  H       1.00    0.246155661    4.079918629   -1.529856130
   6  H       1.00    0.246155661    4.079918629    1.529856130
   7  H       1.00   -1.239236805   -1.608796342    0.000000000
   8  H       1.00    1.239236805    1.608796342    0.000000000

 Bond lengths in Bohr (Angstrom)

 1-3  1.913364770  1-4  1.913364770  1-7  1.916512000  2-5  1.913364770  2-6  1.913364770
     ( 1.012509032)     ( 1.012509032)     ( 1.014174475)     ( 1.012509032)     ( 1.012509032)

 2-8  1.916512000
     ( 1.014174475)

 Bond angles

  3-1-4  106.17682966   3-1-7  106.63180830   4-1-7  106.63180830   5-2-6  106.17682966

  5-2-8  106.63180830   6-2-8  106.63180830

 NUCLEAR CHARGE:                   20
 NUMBER OF PRIMITIVE AOS:         112
 NUMBER OF SYMMETRY AOS:          110
 NUMBER OF CONTRACTIONS:           72   (   24Ag  +   12Au  +   24Bu  +   12Bg  )
 NUMBER OF INNER CORE ORBITALS:     0   (    0Ag  +    0Au  +    0Bu  +    0Bg  )
 NUMBER OF OUTER CORE ORBITALS:     2   (    1Ag  +    0Au  +    1Bu  +    0Bg  )
 NUMBER OF VALENCE ORBITALS:       14   (    5Ag  +    2Au  +    5Bu  +    2Bg  )


 NUCLEAR REPULSION ENERGY   40.31424002

 Eigenvalues of metric

         1 0.105E-01 0.342E-01 0.569E-01 0.813E-01 0.104E+00 0.113E+00 0.152E+00 0.264E+00
         2 0.371E-01 0.775E-01 0.112E+00 0.407E+00 0.414E+00 0.563E+00 0.796E+00 0.868E+00
         3 0.112E-01 0.320E-01 0.643E-01 0.803E-01 0.960E-01 0.112E+00 0.150E+00 0.226E+00
         4 0.332E-01 0.745E-01 0.104E+00 0.395E+00 0.416E+00 0.558E+00 0.795E+00 0.867E+00


 Contracted 2-electron integrals neglected if value below      1.0D-11
 AO integral compression algorithm  1   Integral accuracy      1.0D-11

     6.554 MB (compressed) written to integral file ( 61.4%)


 NUMBER OF SORTED TWO-ELECTRON INTEGRALS:     914346.     BUFFER LENGTH:  32768
 NUMBER OF SEGMENTS:   1  SEGMENT LENGTH:     914346      RECORD LENGTH: 524288

 Memory used in sort:       1.47 MW

 SORT1 READ     1350512. AND WROTE      914346. INTEGRALS IN      3 RECORDS. CPU TIME:     0.01 SEC, REAL TIME:     0.03 SEC
 SORT2 READ      914346. AND WROTE      914346. INTEGRALS IN     25 RECORDS. CPU TIME:     0.05 SEC, REAL TIME:     0.05 SEC

 FILE SIZES:   FILE 1:    36.8 MBYTE,  FILE 4:    12.6 MBYTE,   TOTAL:     49.4 MBYTE

 OPERATOR DM      FOR CENTER  0  COORDINATES:    0.000000    0.000000    0.000000


 **********************************************************************************************************************************
 DATASETS  * FILE   NREC   LENGTH (MB)   RECORD NAMES
              1      19       33.03       500      610      700      900      950      970     1000      129      960     1100   
                                          VAR    BASINP    GEOM    SYMINP    ZMAT    AOBASIS   BASIS     P2S    ABASIS      S 
                                         1400     1410     1200     1210     1080     1600     1650     1300     1700   
                                           T        V       H0       H01     AOSYM     SMH    MOLCAS    ERIS     OPER   

 PROGRAMS   *        TOTAL       INT
 CPU TIMES  *         0.38      0.28
 REAL TIME  *         0.47 SEC
 DISK USED  *        47.59 MB
 **********************************************************************************************************************************


 Program * Restricted Hartree-Fock

 Orbital guess generated from atomic densities.

 Initial occupancy:   4   1   4   1

 NELEC=   20   SYM=1   MS2= 0   THRE=1.0D-08   THRD=1.0D-06   THRG=1.0D-06  HFMA2=F  DIIS_START=2   DIIS_MAX=10   DIIS_INCORE=F

 Level shifts:    0.00 (CLOSED)    0.00 (OPEN)    0.30 (GAP_MIN)

 ITER           ETOT              DE          GRAD        DDIFF     DIIS  NEXP   TIME(IT)  TIME(TOT)  DIAG
   1     -112.37531845    -112.37531845     0.00D+00     0.87D-01     0     0       0.00      0.02    start
   2     -112.41621428      -0.04089583     0.17D-01     0.11D-01     1     0       0.01      0.03    diag
   3     -112.42451410      -0.00829982     0.77D-02     0.39D-02     2     0       0.00      0.03    diag
   4     -112.42495065      -0.00043655     0.13D-02     0.12D-02     3     0       0.00      0.03    diag
   5     -112.42497400      -0.00002335     0.27D-03     0.34D-03     4     0       0.00      0.03    diag
   6     -112.42497487      -0.00000087     0.44D-04     0.79D-04     5     0       0.01      0.04    diag
   7     -112.42497491      -0.00000004     0.87D-05     0.14D-04     6     0       0.00      0.04    diag
   8     -112.42497492      -0.00000000     0.22D-05     0.37D-05     7     0       0.00      0.04    fixocc
   9     -112.42497492      -0.00000000     0.51D-06     0.12D-05     8     0       0.00      0.04    diag
  10     -112.42497492      -0.00000000     0.11D-06     0.27D-06     9     0       0.01      0.05    diag/orth
  11     -112.42497492      -0.00000000     0.18D-07     0.24D-07     0     0       0.00      0.05    diag

 Final occupancy:   4   1   4   1

 !RHF STATE 1.1 Energy               -112.424974916686
  RHF One-electron energy            -232.247637967129
  RHF Two-electron energy              79.508423035165
  RHF Kinetic energy                  112.377313434514
  RHF Nuclear energy                   40.314240015278
  RHF Virial quotient                  -1.000424120142

 !RHF STATE 1.1 Dipole moment           0.00000000     0.00000000     0.00000000
 Dipole moment /Debye                   0.00000000     0.00000000     0.00000000

 Orbital energies:

           1.1          2.1          3.1          4.1          5.1          6.1
    -15.523841    -1.134795    -0.633932    -0.418027     0.153368     0.290764

           1.2          2.2          3.2
     -0.617918     0.228290     0.474560

           1.3          2.3          3.3          4.3          5.3          6.3
    -15.523845    -1.126954    -0.598666    -0.421905     0.183955     0.265592

           1.4          2.4          3.4
     -0.615511     0.238469     0.570677


 HOMO      4.1    -0.418027 =     -11.3751eV
 LUMO      5.1     0.153368 =       4.1734eV
 LUMO-HOMO         0.571395 =      15.5485eV

 Orbitals saved in record  2100.2


 **********************************************************************************************************************************
 DATASETS  * FILE   NREC   LENGTH (MB)   RECORD NAMES
              1      19       33.03       500      610      700      900      950      970     1000      129      960     1100   
                                          VAR    BASINP    GEOM    SYMINP    ZMAT    AOBASIS   BASIS     P2S    ABASIS      S 
                                         1400     1410     1200     1210     1080     1600     1650     1300     1700   
                                           T        V       H0       H01     AOSYM     SMH    MOLCAS    ERIS     OPER   

              2       4        0.52       700     1000      520     2100   
                                         GEOM     BASIS   MCVARS     RHF  

 PROGRAMS   *        TOTAL    HF-SCF       INT
 CPU TIMES  *         0.43      0.05      0.28
 REAL TIME  *         0.53 SEC
 DISK USED  *        47.59 MB
 **********************************************************************************************************************************


 PROGRAM * OPT (Geometry optimization)     Authors: F. Eckert and H.-J. Werner


 BFGS update of hessian

 *** Long output written to logfile /home/lme/Theoretische_Chemie/Nomodeco/ase_integration/nh3_dimer/Ammonia_dimer.molpro/run/Ammonia_dimer_1.molpro/Ammonia_dimer_1.log ***


 Geometry optimization using default procedure for command HF-SCF

 Geometry written to block  1 of record 700

 PQS Optimization using delocalized internal coordinates

 Point group c2h. Number of degrees of freedom:    6

 ITER.   ENERGY(OLD)    ENERGY(NEW)      DE          GRADMAX     GRADNORM    GRADRMS     STEPMAX     STEPLEN     STEPRMS   CPU-time
   1  -112.42497492  -112.42575261    -0.00077770  0.01388640  0.02334315  0.00952980  0.07827223  0.08498976  0.03469692      0.55
   2  -112.42575261  -112.42585938    -0.00010677  0.00208353  0.00346921  0.00141630  0.05277861  0.06570885  0.02682553      1.08
   3  -112.42585938  -112.42588816    -0.00002878  0.00159109  0.00178065  0.00072695  0.03242409  0.04288532  0.01750786      1.62
   4  -112.42588816  -112.42590156    -0.00001340  0.00093260  0.00114779  0.00046858  0.02510088  0.03668621  0.01497708      2.16
   5  -112.42590156  -112.42590347    -0.00000191  0.00031884  0.00047844  0.00019532  0.00757232  0.00926931  0.00378418      2.70
   6  -112.42590347  -112.42590412    -0.00000065  0.00012306  0.00019911  0.00008128  0.00257336  0.00434816  0.00177513      3.23

 END OF GEOMETRY OPTIMIZATION.

 Geometry written to block  1 of record 700

 Recomputing wavefunction for reoriented structure

 Current geometry (xyz format, in Angstrom)

    8
 HF-SCF000/6-311G(D,P)  ENERGY=-112.42590412
 N          0.0472467063       -1.6438405335        0.0000000000
 H         -0.1093863658       -2.2155111485       -0.8067011077
 H         -0.1093863658       -2.2155111485        0.8067011077
 H         -0.6458749209       -0.9203416879        0.0000000000
 N         -0.0472467063        1.6438405335        0.0000000000
 H          0.1093863658        2.2155111485       -0.8067011077
 H          0.6458749209        0.9203416879        0.0000000000
 H          0.1093863658        2.2155111485        0.8067011077

 **********************************************************************************************************************************


 **********************************************************************************************************************************
 DATASETS  * FILE   NREC   LENGTH (MB)   RECORD NAMES
              1      19       33.03       500      610      700      900      950      970     1000      129      960     1100   
                                          VAR    BASINP    GEOM    SYMINP    ZMAT    AOBASIS   BASIS     P2S    ABASIS      S 
                                         1400     1410     1200     1210     1080     1600     1650     1300     1700   
                                           T        V       H0       H01     AOSYM     SMH    MOLCAS    ERIS     OPER   

              2       4        0.52       700     1000      520     2100   
                                         GEOM     BASIS   MCVARS     RHF  

 PROGRAMS   *        TOTAL      OPTG    HF-SCF       INT
 CPU TIMES  *         3.92      3.48      0.05      0.28
 REAL TIME  *         4.34 SEC
 DISK USED  *        48.03 MB
 **********************************************************************************************************************************


 PROGRAM * HESSIAN

 PROGRAM * MCKINLEY (Hessian of the energy)     Author: A. Bernhardsson, R. Lindh

 Orbitals from record         2100.2

 Number of closed-shell orbitals: 10 (  4  1  4  1 )
 Number of occupied orbitals:     10 (  4  1  4  1 )

 Number of electrons= 20     Singlet     Space symmetry=1      Wavefunction type: CLOSED          


 McKinley needed      2.74 seconds of CPU time

 Entering CPHF calculation

 CPHF needed 171 iterations for 24 perturbations.  Total CPU time:    0.75 sec


 HF-SCF hessian saved to record  5300.2

 PROGRAM * FREQUENCIES (Calculation of harmonic vibrational spectra for HF-SCF)


 Permanent Dipole Moment [debye]
     1-   3    0.000000    0.000000    0.000000

 Dipole Moment Norm    0.0000000 [debye]

 Dipole Moment Derivatives [debye/ang]
              1             2             3             4             5             6             7             8
    1    0.00000000    0.00000000    0.00000000    0.00000000    0.00000000    0.00000000    0.00000000    0.00000000
    2    0.00000000    0.00000000    0.00000000    0.00000000    0.00000000    0.00000000    0.00000000    0.00000000
    3    0.00000000    0.00000000    0.00000000    0.00000000    0.00000000    0.00000000    0.00000000    0.00000000
              9            10            11            12            13            14            15            16
    1    0.00000000    0.00000000    0.00000000    0.00000000    0.00000000    0.00000000    0.00000000    0.00000000
    2    0.00000000    0.00000000    0.00000000    0.00000000    0.00000000    0.00000000    0.00000000    0.00000000
    3    0.00000000    0.00000000    0.00000000    0.00000000    0.00000000    0.00000000    0.00000000    0.00000000
             17            18            19            20            21            22            23            24
    1    0.00000000    0.00000000    0.00000000    0.00000000    0.00000000    0.00000000    0.00000000    0.00000000
    2    0.00000000    0.00000000    0.00000000    0.00000000    0.00000000    0.00000000    0.00000000    0.00000000
    3    0.00000000    0.00000000    0.00000000    0.00000000    0.00000000    0.00000000    0.00000000    0.00000000

 Projecting out rotations and translations

 Force Constants (Second Derivatives of the Energy) in [a.u.]
                             NX1         NY1         NZ1         HX2         HY2     
           NX1           0.3232524
           NY1          -0.1717865   0.6683380
           NZ1           0.0000000   0.0000000   0.7326858
           HX2          -0.0376491  -0.0445585  -0.0947276   0.0363817
           HY2          -0.0152800  -0.2055466  -0.2013820   0.0233001   0.2063476
           HZ2          -0.0478729  -0.1812006  -0.3293321   0.0572545   0.2049774
           HX3          -0.0376491  -0.0445585   0.0947276  -0.0023497   0.0029121
           HY3          -0.0152800  -0.2055466   0.2013820   0.0029121   0.0174270
           HZ3           0.0478729   0.1812006  -0.3293321   0.0078201   0.0254410
           HX4          -0.2479574   0.2598943  -0.0000000   0.0034330  -0.0112481
           HY4           0.2033343  -0.2546187   0.0000000   0.0181007  -0.0175074
           HZ4          -0.0000000   0.0000000  -0.0747625   0.0300338  -0.0291722
           NX5           0.0006588  -0.0001561  -0.0000000  -0.0001930  -0.0002474
           NY5          -0.0001561  -0.0021342   0.0000000  -0.0000121  -0.0005988
           NZ5           0.0000000  -0.0000000   0.0035314   0.0002569   0.0008400
           HX6          -0.0001930  -0.0000121  -0.0002569   0.0001775  -0.0001538
           HY6          -0.0002474  -0.0005988  -0.0008400  -0.0001538  -0.0004787
           HZ6          -0.0001151  -0.0002011  -0.0002463  -0.0000315  -0.0001276
           HX7          -0.0002696   0.0011894  -0.0000000   0.0002098   0.0007011
           HY7          -0.0003370   0.0007056   0.0000000   0.0003955   0.0003661
           HZ7          -0.0000000  -0.0000000  -0.0022978  -0.0006009  -0.0005885
           HX8          -0.0001930  -0.0000121   0.0002569  -0.0000102   0.0000159
           HY8          -0.0002474  -0.0005988   0.0008400   0.0000159  -0.0000092
           HZ8           0.0001151   0.0002011  -0.0002463  -0.0000054   0.0000118
                             HZ2         HX3         HY3         HZ3         HX4     
           HZ2           0.3564020
           HX3          -0.0078201   0.0363817
           HY3          -0.0254410   0.0233001   0.2063476
           HZ3          -0.0289953  -0.0572545  -0.2049774   0.3564020
           HX4          -0.0014969   0.0034330  -0.0112481   0.0014969   0.2435048
           HY4           0.0015887   0.0181007  -0.0175074  -0.0015887  -0.2373346
           HZ4           0.0019676  -0.0300338   0.0291722   0.0019676   0.0000000
           NX5           0.0001151  -0.0001930  -0.0002474  -0.0001151  -0.0002696
           NY5           0.0002011  -0.0000121  -0.0005988  -0.0002011   0.0011894
           NZ5          -0.0002463  -0.0002569  -0.0008400  -0.0002463  -0.0000000
           HX6           0.0000315  -0.0000102   0.0000159   0.0000054   0.0002098
           HY6           0.0001276   0.0000159  -0.0000092  -0.0000118   0.0007011
           HZ6           0.0000508   0.0000054  -0.0000118  -0.0000050   0.0002058
           HX7          -0.0002058   0.0002098   0.0007011   0.0002058  -0.0025633
           HY7          -0.0002651   0.0003955   0.0003661   0.0002651  -0.0026550
           HZ7           0.0001585   0.0006009   0.0005885   0.0001585   0.0000000
           HX8          -0.0000054   0.0001775  -0.0001538  -0.0000315   0.0002098
           HY8           0.0000118  -0.0001538  -0.0004787  -0.0001276   0.0007011
           HZ8          -0.0000050   0.0000315   0.0001276   0.0000508  -0.0002058
                             HY4         HZ4         NX5         NY5         NZ5     
           HY4           0.2905014
           HZ4           0.0000000   0.0717101
           NX5          -0.0003370  -0.0000000   0.3232524
           NY5           0.0007056   0.0000000  -0.1717865   0.6683380
           NZ5          -0.0000000  -0.0022978  -0.0000000  -0.0000000   0.7326858
           HX6           0.0003955   0.0006009  -0.0376491  -0.0445585   0.0947276
           HY6           0.0003661   0.0005885  -0.0152800  -0.2055466   0.2013820
           HZ6           0.0002651   0.0001585   0.0478729   0.1812006  -0.3293321
           HX7          -0.0026550  -0.0000000  -0.2479574   0.2598943  -0.0000000
           HY7          -0.0023057   0.0000000   0.2033343  -0.2546187  -0.0000000
           HZ7          -0.0000000   0.0010981   0.0000000  -0.0000000  -0.0747625
           HX8           0.0003955  -0.0006009  -0.0376491  -0.0445585  -0.0947276
           HY8           0.0003661  -0.0005885  -0.0152800  -0.2055466  -0.2013820
           HZ8          -0.0002651   0.0001585  -0.0478729  -0.1812006  -0.3293321
                             HX6         HY6         HZ6         HX7         HY7     
           HX6           0.0363817
           HY6           0.0233001   0.2063476
           HZ6          -0.0572545  -0.2049774   0.3564020
           HX7           0.0034330  -0.0112481   0.0014969   0.2435048
           HY7           0.0181007  -0.0175074  -0.0015887  -0.2373346   0.2905014
           HZ7          -0.0300338   0.0291722   0.0019676   0.0000000  -0.0000000
           HX8          -0.0023497   0.0029121   0.0078201   0.0034330   0.0181007
           HY8           0.0029121   0.0174270   0.0254410  -0.0112481  -0.0175074
           HZ8          -0.0078201  -0.0254410  -0.0289953  -0.0014969   0.0015887
                             HZ7         HX8         HY8         HZ8     
           HZ7           0.0717101
           HX8           0.0300338   0.0363817
           HY8          -0.0291722   0.0233001   0.2063476
           HZ8           0.0019676   0.0572545   0.2049774   0.3564020


 Atomic Masses
     1-   8   14.003070    1.007825    1.007825    1.007825   14.003070    1.007825    1.007825    1.007825

 Mass weighted Second Derivative Matrix
                             NX1         NY1         NZ1         HX2         HY2     
           NX1           0.0230844
           NY1          -0.0122678   0.0477280
           NZ1           0.0000000   0.0000000   0.0523232
           HX2          -0.0100219  -0.0118611  -0.0252158   0.0360993
           HY2          -0.0040674  -0.0547150  -0.0536064   0.0231192   0.2047455
           HZ2          -0.0127434  -0.0482342  -0.0876657   0.0568100   0.2033859
           HX3          -0.0100219  -0.0118611   0.0252158  -0.0023315   0.0028895
           HY3          -0.0040674  -0.0547150   0.0536064   0.0028895   0.0172917
           HZ3           0.0127434   0.0482342  -0.0876657   0.0077594   0.0252435
           HX4          -0.0660044   0.0691819  -0.0000000   0.0034063  -0.0111608
           HY4           0.0541261  -0.0677776   0.0000000   0.0179601  -0.0173714
           HZ4          -0.0000000   0.0000000  -0.0199012   0.0298006  -0.0289457
           NX5           0.0000470  -0.0000111  -0.0000000  -0.0000514  -0.0000658
           NY5          -0.0000111  -0.0001524   0.0000000  -0.0000032  -0.0001594
           NZ5           0.0000000  -0.0000000   0.0002522   0.0000684   0.0002236
           HX6          -0.0000514  -0.0000032  -0.0000684   0.0001761  -0.0001526
           HY6          -0.0000658  -0.0001594  -0.0002236  -0.0001526  -0.0004750
           HZ6          -0.0000306  -0.0000535  -0.0000656  -0.0000313  -0.0001266
           HX7          -0.0000718   0.0003166  -0.0000000   0.0002082   0.0006956
           HY7          -0.0000897   0.0001878   0.0000000   0.0003924   0.0003632
           HZ7          -0.0000000  -0.0000000  -0.0006117  -0.0005962  -0.0005839
           HX8          -0.0000514  -0.0000032   0.0000684  -0.0000102   0.0000158
           HY8          -0.0000658  -0.0001594   0.0002236   0.0000158  -0.0000091
           HZ8           0.0000306   0.0000535  -0.0000656  -0.0000053   0.0000117
                             HZ2         HX3         HY3         HZ3         HX4     
           HZ2           0.3536348
           HX3          -0.0077594   0.0360993
           HY3          -0.0252435   0.0231192   0.2047455
           HZ3          -0.0287702  -0.0568100  -0.2033859   0.3536348
           HX4          -0.0014853   0.0034063  -0.0111608   0.0014853   0.2416142
           HY4           0.0015764   0.0179601  -0.0173714  -0.0015764  -0.2354919
           HZ4           0.0019523  -0.0298006   0.0289457   0.0019523   0.0000000
           NX5           0.0000306  -0.0000514  -0.0000658  -0.0000306  -0.0000718
           NY5           0.0000535  -0.0000032  -0.0001594  -0.0000535   0.0003166
           NZ5          -0.0000656  -0.0000684  -0.0002236  -0.0000656  -0.0000000
           HX6           0.0000313  -0.0000102   0.0000158   0.0000053   0.0002082
           HY6           0.0001266   0.0000158  -0.0000091  -0.0000117   0.0006956
           HZ6           0.0000504   0.0000053  -0.0000117  -0.0000050   0.0002042
           HX7          -0.0002042   0.0002082   0.0006956   0.0002042  -0.0025434
           HY7          -0.0002630   0.0003924   0.0003632   0.0002630  -0.0026344
           HZ7           0.0001572   0.0005962   0.0005839   0.0001572   0.0000000
           HX8          -0.0000053   0.0001761  -0.0001526  -0.0000313   0.0002082
           HY8           0.0000117  -0.0001526  -0.0004750  -0.0001266   0.0006956
           HZ8          -0.0000050   0.0000313   0.0001266   0.0000504  -0.0002042
                             HY4         HZ4         NX5         NY5         NZ5     
           HY4           0.2882458
           HZ4           0.0000000   0.0711533
           NX5          -0.0000897  -0.0000000   0.0230844
           NY5           0.0001878   0.0000000  -0.0122678   0.0477280
           NZ5          -0.0000000  -0.0006117  -0.0000000  -0.0000000   0.0523232
           HX6           0.0003924   0.0005962  -0.0100219  -0.0118611   0.0252158
           HY6           0.0003632   0.0005839  -0.0040674  -0.0547150   0.0536064
           HZ6           0.0002630   0.0001572   0.0127434   0.0482342  -0.0876657
           HX7          -0.0026344  -0.0000000  -0.0660044   0.0691819  -0.0000000
           HY7          -0.0022878   0.0000000   0.0541261  -0.0677776  -0.0000000
           HZ7          -0.0000000   0.0010896   0.0000000  -0.0000000  -0.0199012
           HX8           0.0003924  -0.0005962  -0.0100219  -0.0118611  -0.0252158
           HY8           0.0003632  -0.0005839  -0.0040674  -0.0547150  -0.0536064
           HZ8          -0.0002630   0.0001572  -0.0127434  -0.0482342  -0.0876657
                             HX6         HY6         HZ6         HX7         HY7     
           HX6           0.0360993
           HY6           0.0231192   0.2047455
           HZ6          -0.0568100  -0.2033859   0.3536348
           HX7           0.0034063  -0.0111608   0.0014853   0.2416142
           HY7           0.0179601  -0.0173714  -0.0015764  -0.2354919   0.2882458
           HZ7          -0.0298006   0.0289457   0.0019523   0.0000000  -0.0000000
           HX8          -0.0023315   0.0028895   0.0077594   0.0034063   0.0179601
           HY8           0.0028895   0.0172917   0.0252435  -0.0111608  -0.0173714
           HZ8          -0.0077594  -0.0252435  -0.0287702  -0.0014853   0.0015764
                             HZ7         HX8         HY8         HZ8     
           HZ7           0.0711533
           HX8           0.0298006   0.0360993
           HY8          -0.0289457   0.0231192   0.2047455
           HZ8           0.0019523   0.0568100   0.2033859   0.3536348


 Mass Weighted 2nd Derivative Matrix Eigenvalues
     1-  10    0.000000    0.000000    0.000000    0.000000    0.000000    0.000000    0.000164    0.000293    0.000506    0.000560
    11-  20    0.001885    0.006705    0.050972    0.052550    0.121205    0.123522    0.123812    0.125375    0.513020    0.513447
    21-  24    0.547783    0.547836    0.548241    0.548340

 Mass Weighted 2nd Derivative Matrix Eigenvectors
              1             2             3             4             5             6             7             8
    1   -0.02014162    0.06517260   -0.00456331   -0.02790477    0.04722729    0.88834272    0.05237076    0.00000000
    2    0.34023600   -0.36097497   -0.12395694    0.38088126   -0.03782469    0.06001190   -0.12127372    0.00000000
    3    0.07927675    0.69022801   -0.19694030    0.51107642   -0.12529459   -0.02713716    0.00000000    0.05449346
    4    0.23989421    0.14079061   -0.19219981   -0.14900461    0.24627270    0.25748991   -0.30383301    0.03502349
    5    0.12106284   -0.12817124    0.02619583    0.06689508   -0.00082507    0.00667845    0.05095324    0.36910858
    6   -0.04746803    0.18343189   -0.05788317    0.18959269   -0.08557725   -0.00432585    0.00232016   -0.25405105
    7   -0.22971187   -0.09849310    0.15208035    0.09668315   -0.27830725    0.30177183   -0.30383301   -0.03502349
    8    0.05574019   -0.06751832   -0.08238349    0.14770046   -0.00374969    0.00288361    0.05095324   -0.36910858
    9   -0.04746803    0.18343189   -0.05788317    0.18959269   -0.08557725   -0.00432585   -0.00232016   -0.25405105
   10   -0.01868542    0.01284641    0.02261375    0.01614812    0.04897606    0.18603874    0.41245337    0.00000000
   11    0.07855271   -0.10128380   -0.01041751    0.12482306    0.02463433   -0.03398696    0.35014279    0.00000000
   12   -0.15118327    0.05517573    0.14375965    0.20642173   -0.25766284    0.01344511    0.00000000    0.30497707
   13   -0.24511523   -0.01338402    0.39921241    0.37242084    0.66219312    0.00277557    0.05237076    0.00000000
   14    0.33376989   -0.36323282   -0.11235175    0.39238729   -0.02014956    0.03455923   -0.12127372    0.00000000
   15    0.47292532    0.17728987    0.70295292   -0.04905799   -0.21760235    0.01135445    0.00000000    0.05449346
   16    0.15854997    0.11238671   -0.04620568   -0.00425794    0.46862733   -0.06270667   -0.30383301   -0.03502349
   17    0.12507904   -0.12676885    0.01898767    0.05974851   -0.01180338    0.02248750    0.05095324   -0.36910858
   18    0.19561030    0.04930186    0.19363393   -0.06564449   -0.00641358    0.00009173   -0.00232016   -0.25405105
   19   -0.05247648    0.00104720    0.08326092    0.07627708    0.14134402    0.05302643    0.41245337    0.00000000
   20    0.10226652   -0.09300337   -0.05297831    0.08262591   -0.04018740    0.05935807    0.35014279    0.00000000
   21    0.29932553    0.17755802   -0.00800889   -0.08247353    0.16567200   -0.01767922    0.00000000    0.30497707
   22   -0.31105611   -0.12689700    0.29807448    0.24142981   -0.05595262   -0.01842475   -0.30383301    0.03502349
   23    0.05975640   -0.06611593   -0.08959165    0.14055389   -0.01472800    0.01869267    0.05095324    0.36910858
   24    0.19561030    0.04930186    0.19363393   -0.06564449   -0.00641358    0.00009173    0.00232016   -0.25405105
              9            10            11            12            13            14            15            16
    1    0.00000000   -0.00592280    0.00000000    0.19118180   -0.25996599   -0.24299217    0.06306296    0.06499837
    2    0.00000000    0.64732127    0.00000000   -0.07939463   -0.10717122   -0.12026759   -0.16094970   -0.15253825
    3    0.20592591    0.00000000    0.11935522    0.00000000    0.00000000    0.00000000    0.00000000    0.00000000
    4    0.06961543    0.01768159    0.43747393   -0.29565842    0.34745081    0.32322591   -0.06258817   -0.06275418
    5    0.36261992    0.16769241    0.02568299    0.06554632    0.06795431    0.08299027    0.37490963    0.37120278
    6   -0.21568593    0.00040501   -0.07117376    0.00362425   -0.11321879   -0.12023060   -0.27076732   -0.26799176
    7   -0.06961543    0.01768159   -0.43747393   -0.29565842    0.34745081    0.32322591   -0.06258817   -0.06275418
    8   -0.36261992    0.16769241   -0.02568299    0.06554632    0.06795431    0.08299027    0.37490963    0.37120278
    9   -0.21568593   -0.00040501   -0.07117376   -0.00362425    0.11321879    0.12023060    0.27076732    0.26799176
   10    0.00000000   -0.02190982    0.00000000    0.40970064    0.27412476    0.30505509   -0.10989159   -0.13108668
   11    0.00000000    0.15359999    0.00000000    0.32533780    0.26357339    0.28600062   -0.14987728   -0.16800368
   12    0.30310830    0.00000000   -0.30255050    0.00000000    0.00000000    0.00000000    0.00000000    0.00000000
   13    0.00000000    0.00592280    0.00000000   -0.19118180   -0.25996599    0.24299217    0.06306296   -0.06499837
   14    0.00000000   -0.64732127    0.00000000    0.07939463   -0.10717122    0.12026759   -0.16094970    0.15253825
   15   -0.20592591    0.00000000    0.11935522    0.00000000    0.00000000    0.00000000    0.00000000    0.00000000
   16    0.06961543   -0.01768159   -0.43747393    0.29565842    0.34745081   -0.32322591   -0.06258817    0.06275418
   17    0.36261992   -0.16769241   -0.02568299   -0.06554632    0.06795431   -0.08299027    0.37490963   -0.37120278
   18    0.21568593    0.00040501   -0.07117376    0.00362425    0.11321879   -0.12023060    0.27076732   -0.26799176
   19    0.00000000    0.02190982    0.00000000   -0.40970064    0.27412476   -0.30505509   -0.10989159    0.13108668
   20    0.00000000   -0.15359999    0.00000000   -0.32533780    0.26357339   -0.28600062   -0.14987728    0.16800368
   21   -0.30310830    0.00000000   -0.30255050    0.00000000    0.00000000    0.00000000    0.00000000    0.00000000
   22   -0.06961543   -0.01768159    0.43747393    0.29565842    0.34745081   -0.32322591   -0.06258817    0.06275418
   23   -0.36261992   -0.16769241    0.02568299   -0.06554632    0.06795431   -0.08299027    0.37490963   -0.37120278
   24    0.21568593   -0.00040501   -0.07117376   -0.00362425   -0.11321879    0.12023060   -0.27076732    0.26799176
             17            18            19            20            21            22            23            24
    1    0.00000000    0.00000000   -0.09381975   -0.09289380    0.07652378    0.07562640    0.00000000    0.00000000
    2    0.00000000    0.00000000   -0.03093147   -0.03312545   -0.18865845   -0.18884951    0.00000000    0.00000000
    3   -0.16948539   -0.17521906    0.00000000    0.00000000    0.00000000    0.00000000   -0.20239286   -0.20216373
    4    0.23865343    0.22945601    0.03799903    0.03820095    0.04462222    0.04474608    0.06886592    0.06884658
    5   -0.18602080   -0.18880788    0.21891710    0.22060232    0.15481495    0.15765931    0.27808472    0.27829988
    6    0.05638057    0.05932906    0.32613090    0.32882167    0.23608789    0.23947935    0.38387238    0.38376650
    7   -0.23865343   -0.22945601    0.03799903    0.03820095    0.04462222    0.04474608   -0.06886592   -0.06884658
    8    0.18602080    0.18880788    0.21891710    0.22060232    0.15481495    0.15765931   -0.27808472   -0.27829988
    9    0.05638057    0.05932906   -0.32613090   -0.32882167   -0.23608789   -0.23947935    0.38387238    0.38376650
   10    0.00000000    0.00000000    0.27312415    0.26986085   -0.37448778   -0.37165377    0.00000000    0.00000000
   11    0.00000000    0.00000000   -0.32277596   -0.31772913    0.39359674    0.38996401    0.00000000    0.00000000
   12    0.53084722    0.53447306    0.00000000    0.00000000    0.00000000    0.00000000   -0.01318574   -0.01396525
   13    0.00000000    0.00000000    0.09381975   -0.09289380    0.07652378   -0.07562640    0.00000000    0.00000000
   14    0.00000000    0.00000000    0.03093147   -0.03312545   -0.18865845    0.18884951    0.00000000    0.00000000
   15    0.16948539   -0.17521906    0.00000000    0.00000000    0.00000000    0.00000000    0.20239286   -0.20216373
   16    0.23865343   -0.22945601   -0.03799903    0.03820095    0.04462222   -0.04474608    0.06886592   -0.06884658
   17   -0.18602080    0.18880788   -0.21891710    0.22060232    0.15481495   -0.15765931    0.27808472   -0.27829988
   18   -0.05638057    0.05932906    0.32613090   -0.32882167   -0.23608789    0.23947935   -0.38387238    0.38376650
   19    0.00000000    0.00000000   -0.27312415    0.26986085   -0.37448778    0.37165377    0.00000000    0.00000000
   20    0.00000000    0.00000000    0.32277596   -0.31772913    0.39359674   -0.38996401    0.00000000    0.00000000
   21   -0.53084722    0.53447306    0.00000000    0.00000000    0.00000000    0.00000000    0.01318574   -0.01396525
   22   -0.23865343    0.22945601   -0.03799903    0.03820095    0.04462222   -0.04474608   -0.06886592    0.06884658
   23    0.18602080   -0.18880788   -0.21891710    0.22060232    0.15481495   -0.15765931   -0.27808472    0.27829988
   24   -0.05638057    0.05932906   -0.32613090    0.32882167    0.23608789   -0.23947935   -0.38387238    0.38376650

   Low Vibration      Wavenumber
        Nr             [1/cm] 
        1                0.00
        2                0.00
        3                0.00
        4                0.00
        5                0.00
        6                0.00

     Vibration        Wavenumber
        Nr             [1/cm] 
        1               65.92
        2               87.92
        3              115.65
        4              121.68
        5              223.17
        6              420.91
        7             1160.57
        8             1178.39
        9             1789.64
       10             1806.66
       11             1808.78
       12             1820.16
       13             3681.89
       14             3683.43
       15             3804.60
       16             3804.78
       17             3806.19
       18             3806.53

 FREQUENCIES * CALCULATION OF NORMAL MODES FOR HF-SCF


 Atomic Coordinates

  Nr  Atom  Charge       X              Y              Z

   1   N     7.00    0.089283335   -3.106408401    0.000000000
   2   H     1.00   -0.206710273   -4.186709297   -1.524444158
   3   H     1.00   -0.206710273   -4.186709297    1.524444158
   4   H     1.00   -1.220526711   -1.739193731    0.000000000
   5   N     7.00   -0.089283335    3.106408401    0.000000000
   6   H     1.00    0.206710273    4.186709297   -1.524444158
   7   H     1.00    1.220526711    1.739193731    0.000000000
   8   H     1.00    0.206710273    4.186709297    1.524444158

 Gradient norm at reference geometry: 0.21242D-03

 Normal Modes

                              1 Bu        2 Au        3 Bg        4 Ag        5 Au 
 Wavenumbers [cm-1]           65.92       87.92      115.65      121.68      223.17
 Intensities [km/mol]          0.00        0.00        0.00        0.00        0.00
 Intensities [relative]        0.00        0.00        0.00        0.00        0.00
           NX1              0.01400     0.00000     0.00000    -0.00158    -0.00000
           NY1             -0.03241     0.00000    -0.00000     0.17298    -0.00000
           NZ1             -0.00000     0.01456     0.05503     0.00000     0.03190
           HX2             -0.30265     0.03489     0.06934     0.01761     0.43577
           HY2              0.05076     0.36767     0.36121     0.16704     0.02558
           HZ2              0.00231    -0.25306    -0.21485     0.00040    -0.07090
           HX3             -0.30265    -0.03489    -0.06934     0.01761    -0.43577
           HY3              0.05076    -0.36767    -0.36121     0.16704    -0.02558
           HZ3             -0.00231    -0.25306    -0.21485    -0.00040    -0.07090
           HX4              0.41085     0.00000     0.00000    -0.02182     0.00000
           HY4              0.34878     0.00000    -0.00000     0.15300     0.00000
           HZ4             -0.00000     0.30379     0.30193     0.00000    -0.30137
           NX5              0.01400     0.00000    -0.00000     0.00158    -0.00000
           NY5             -0.03241    -0.00000     0.00000    -0.17298    -0.00000
           NZ5             -0.00000     0.01456    -0.05503    -0.00000     0.03190
           HX6             -0.30265    -0.03489     0.06934    -0.01761    -0.43577
           HY6              0.05076    -0.36767     0.36121    -0.16704    -0.02558
           HZ6             -0.00231    -0.25306     0.21485     0.00040    -0.07090
           HX7              0.41085     0.00000    -0.00000     0.02182     0.00000
           HY7              0.34878     0.00000     0.00000    -0.15300     0.00000
           HZ7             -0.00000     0.30379    -0.30193    -0.00000    -0.30137
           HX8             -0.30265     0.03489    -0.06934    -0.01761     0.43577
           HY8              0.05076     0.36767    -0.36121    -0.16704     0.02558
           HZ8              0.00231    -0.25306     0.21485    -0.00040    -0.07090

                              6 Ag        7 Bu        8 Ag        9 Bu       10 Ag 
 Wavenumbers [cm-1]          420.91     1160.57     1178.39     1789.64     1806.66
 Intensities [km/mol]          0.00        0.00        0.00        0.00        0.00
 Intensities [relative]        0.00        0.00        0.00        0.00        0.00
           NX1              0.05109    -0.06947    -0.06494     0.01685     0.01737
           NY1             -0.02122    -0.02864    -0.03214    -0.04301    -0.04076
           NZ1              0.00000    -0.00000    -0.00000     0.00000    -0.00000
           HX2             -0.29451     0.34610     0.32197    -0.06234    -0.06251
           HY2              0.06529     0.06769     0.08267     0.37345     0.36976
           HZ2              0.00361    -0.11278    -0.11976    -0.26971    -0.26695
           HX3             -0.29451     0.34610     0.32197    -0.06234    -0.06251
           HY3              0.06529     0.06769     0.08267     0.37345     0.36976
           HZ3             -0.00361     0.11278     0.11976     0.26971     0.26695
           HX4              0.40811     0.27306     0.30387    -0.10946    -0.13058
           HY4              0.32407     0.26255     0.28489    -0.14929    -0.16735
           HZ4             -0.00000     0.00000     0.00000    -0.00000     0.00000
           NX5             -0.05109    -0.06947     0.06494     0.01685    -0.01737
           NY5              0.02122    -0.02864     0.03214    -0.04301     0.04076
           NZ5              0.00000    -0.00000     0.00000    -0.00000     0.00000
           HX6              0.29451     0.34610    -0.32197    -0.06234     0.06251
           HY6             -0.06529     0.06769    -0.08267     0.37345    -0.36976
           HZ6              0.00361     0.11278    -0.11976     0.26971    -0.26695
           HX7             -0.40811     0.27306    -0.30387    -0.10946     0.13058
           HY7             -0.32407     0.26255    -0.28489    -0.14929     0.16735
           HZ7              0.00000     0.00000    -0.00000     0.00000    -0.00000
           HX8              0.29451     0.34610    -0.32197    -0.06234     0.06251
           HY8             -0.06529     0.06769    -0.08267     0.37345    -0.36976
           HZ8             -0.00361    -0.11278     0.11976    -0.26971     0.26695

                             11 Bg       12 Au       13 Ag       14 Bu       15 Bu 
 Wavenumbers [cm-1]         1808.78     1820.16     3681.89     3683.43     3804.60
 Intensities [km/mol]          0.00        0.00        0.00        0.00        0.00
 Intensities [relative]        0.00        0.00        0.00        0.00        0.00
           NX1             -0.00000     0.00000    -0.02507    -0.02482     0.02045
           NY1              0.00000    -0.00000    -0.00827    -0.00885    -0.05042
           NZ1             -0.04529    -0.04682     0.00000    -0.00000    -0.00000
           HX2              0.23773     0.22856     0.03785     0.03805     0.04445
           HY2             -0.18530    -0.18807     0.21807     0.21974     0.15421
           HZ2              0.05616     0.05910     0.32486     0.32754     0.23517
           HX3             -0.23773    -0.22856     0.03785     0.03805     0.04445
           HY3              0.18530     0.18807     0.21807     0.21974     0.15421
           HZ3              0.05616     0.05910    -0.32486    -0.32754    -0.23517
           HX4              0.00000    -0.00000     0.27206     0.26881    -0.37303
           HY4              0.00000    -0.00000    -0.32152    -0.31649     0.39207
           HZ4              0.52878     0.53239     0.00000    -0.00000    -0.00000
           NX5              0.00000    -0.00000     0.02507    -0.02482     0.02045
           NY5             -0.00000     0.00000     0.00827    -0.00885    -0.05042
           NZ5              0.04529    -0.04682    -0.00000     0.00000     0.00000
           HX6              0.23773    -0.22856    -0.03785     0.03805     0.04445
           HY6             -0.18530     0.18807    -0.21807     0.21974     0.15421
           HZ6             -0.05616     0.05910     0.32486    -0.32754    -0.23517
           HX7             -0.00000     0.00000    -0.27206     0.26881    -0.37303
           HY7             -0.00000     0.00000     0.32152    -0.31649     0.39207
           HZ7             -0.52878     0.53239    -0.00000     0.00000     0.00000
           HX8             -0.23773     0.22856    -0.03785     0.03805     0.04445
           HY8              0.18530    -0.18807    -0.21807     0.21974     0.15421
           HZ8             -0.05616     0.05910    -0.32486     0.32754     0.23517

                             16 Ag       17 Bg       18 Au 
 Wavenumbers [cm-1]         3804.78     3806.19     3806.53
 Intensities [km/mol]          0.00        0.00        0.00
 Intensities [relative]        0.00        0.00        0.00
           NX1              0.02021    -0.00000    -0.00000
           NY1             -0.05047     0.00000     0.00000
           NZ1              0.00000    -0.05409    -0.05402
           HX2              0.04457     0.06860     0.06858
           HY2              0.15705     0.27700     0.27722
           HZ2              0.23855     0.38238     0.38227
           HX3              0.04457    -0.06860    -0.06858
           HY3              0.15705    -0.27700    -0.27722
           HZ3             -0.23855     0.38238     0.38227
           HX4             -0.37021     0.00000     0.00000
           HY4              0.38845    -0.00000    -0.00000
           HZ4              0.00000    -0.01313    -0.01391
           NX5             -0.02021    -0.00000    -0.00000
           NY5              0.05047     0.00000     0.00000
           NZ5             -0.00000     0.05409    -0.05402
           HX6             -0.04457     0.06860    -0.06858
           HY6             -0.15705     0.27700    -0.27722
           HZ6              0.23855    -0.38238     0.38227
           HX7              0.37021     0.00000     0.00000
           HY7             -0.38845    -0.00000    -0.00000
           HZ7             -0.00000     0.01313    -0.01391
           HX8             -0.04457    -0.06860     0.06858
           HY8             -0.15705    -0.27700     0.27722
           HZ8             -0.23855    -0.38238     0.38227


 Normal Modes of low/zero frequencies

                                  1           2           3           4           5
 Wavenumbers [cm-1]            0.00        0.00        0.00        0.00        0.00
 Intensities [km/mol]          0.00        0.00        0.00        0.00        0.00
 Intensities [relative]        0.00        0.00        0.00        0.00        0.00
           NX1             -0.00538     0.01742    -0.00122    -0.00746     0.01262
           NY1              0.09092    -0.09646    -0.03313     0.10178    -0.01011
           NZ1              0.02119     0.18445    -0.05263     0.13658    -0.03348
           HX2              0.23896     0.14024    -0.19145    -0.14843     0.24531
           HY2              0.12059    -0.12767     0.02609     0.06663    -0.00082
           HZ2             -0.04728     0.18272    -0.05766     0.18886    -0.08524
           HX3             -0.22882    -0.09811     0.15149     0.09631    -0.27722
           HY3              0.05552    -0.06726    -0.08206     0.14713    -0.00374
           HZ3             -0.04728     0.18272    -0.05766     0.18886    -0.08524
           HX4             -0.01861     0.01280     0.02253     0.01609     0.04879
           HY4              0.07825    -0.10089    -0.01038     0.12434     0.02454
           HZ4             -0.15060     0.05496     0.14320     0.20562    -0.25666
           NX5             -0.06550    -0.00358     0.10668     0.09952     0.17696
           NY5              0.08919    -0.09707    -0.03002     0.10486    -0.00538
           NZ5              0.12638     0.04738     0.18785    -0.01311    -0.05815
           HX6              0.15793     0.11195    -0.04603    -0.00424     0.46680
           HY6              0.12459    -0.12628     0.01891     0.05952    -0.01176
           HZ6              0.19485     0.04911     0.19288    -0.06539    -0.00639
           HX7             -0.05227     0.00104     0.08294     0.07598     0.14079
           HY7              0.10187    -0.09264    -0.05277     0.08230    -0.04003
           HZ7              0.29816     0.17687    -0.00798    -0.08215     0.16503
           HX8             -0.30985    -0.12640     0.29692     0.24049    -0.05573
           HY8              0.05952    -0.06586    -0.08924     0.14001    -0.01467
           HZ8              0.19485     0.04911     0.19288    -0.06539    -0.00639

                                  6
 Wavenumbers [cm-1]            0.00
 Intensities [km/mol]          0.00
 Intensities [relative]        0.00
           NX1              0.23739
           NY1              0.01604
           NZ1             -0.00725
           HX2              0.25649
           HY2              0.00665
           HZ2             -0.00431
           HX3              0.30060
           HY3              0.00287
           HZ3             -0.00431
           HX4              0.18532
           HY4             -0.03385
           HZ4              0.01339
           NX5              0.00074
           NY5              0.00924
           NZ5              0.00303
           HX6             -0.06246
           HY6              0.02240
           HZ6              0.00009
           HX7              0.05282
           HY7              0.05913
           HZ7             -0.01761
           HX8             -0.01835
           HY8              0.01862
           HZ8              0.00009


 Frequencies dumped to record   5400.2
 Frequency information read from record  5400.2

 Zero point energy:  0.07560521 [H]    16593.43 [1/CM]      198.50 [KJ/MOL]


 **********************************************************************************************************************************
 DATASETS  * FILE   NREC   LENGTH (MB)   RECORD NAMES
              1      19       33.03       500      610      700      900      950      970     1000      129      960     1100   
                                          VAR    BASINP    GEOM    SYMINP    ZMAT    AOBASIS   BASIS     P2S    ABASIS      S 
                                         1400     1410     1200     1210     1080     1600     1650     1300     1700   
                                           T        V       H0       H01     AOSYM     SMH    MOLCAS    ERIS     OPER   

              2       7        0.56       700     1000      520     2100     5300     5450     5400   
                                         GEOM     BASIS   MCVARS     RHF     HESS     NMOD     FREQ   

              4       5        0.41      4100     4000     4200     4300     4400   

 PROGRAMS   *        TOTAL      FREQ      OPTG    HF-SCF       INT
 CPU TIMES  *         7.42      3.51      3.48      0.05      0.28
 REAL TIME  *         8.01 SEC
 DISK USED  *        48.03 MB
 **********************************************************************************************************************************

 Dump information in style MOLDEN to ammonia_dimer.molden                                                            

 Molecular orbitals read from record     2100.2  Type=RHF/CANONICAL  
 Occupation numbers read from record     2100.2  Type=RHF/RHF  
 Orbital energies read from record       2100.2  Type=RHF/CANONICAL  
 Redundancy group numbers read from rec  2100.2  Type=RHF/RHF  

 DUMP ORBITAL  1.3 AS ORBITAL    1  occ=    2.0000  eig=  -15.5196  GROUP=   2
 DUMP ORBITAL  1.1 AS ORBITAL    2  occ=    2.0000  eig=  -15.5196  GROUP=   2
 DUMP ORBITAL  2.1 AS ORBITAL    3  occ=    2.0000  eig=   -1.1381  GROUP=   2
 DUMP ORBITAL  2.3 AS ORBITAL    4  occ=    2.0000  eig=   -1.1324  GROUP=   2
 DUMP ORBITAL  3.1 AS ORBITAL    5  occ=    2.0000  eig=   -0.6366  GROUP=   2
 DUMP ORBITAL  1.2 AS ORBITAL    6  occ=    2.0000  eig=   -0.6245  GROUP=   2
 DUMP ORBITAL  1.4 AS ORBITAL    7  occ=    2.0000  eig=   -0.6228  GROUP=   2
 DUMP ORBITAL  3.3 AS ORBITAL    8  occ=    2.0000  eig=   -0.6091  GROUP=   2
 DUMP ORBITAL  4.3 AS ORBITAL    9  occ=    2.0000  eig=   -0.4185  GROUP=   2
 DUMP ORBITAL  4.1 AS ORBITAL   10  occ=    2.0000  eig=   -0.4164  GROUP=   2

 Total charge:      20.000000
 Frequency information read from record  5400.2

 **********************************************************************************************************************************

 HF/6-311G(D,P)//HF/6-311G(D,P) energy=   -112.425904115754

    OPTG(HF-SCF)          HF-SCF
   -112.42590412   -112.42497492
 **********************************************************************************************************************************
 Molpro calculation terminated
