[Molden Format]
[Molpro variables]
_NUMVAR=  1058.000000000000    
_AVOGAD= 0.6022140760000000E+24
_BOLTZ= 0.1380649000000000E-22
_CLIGHTSI=  299792458.0000000    
_JOULE= 0.4359744722207100E-17
_JPCAL=  4.184000000000000    
_PLANCK= 0.6626070150000000E-33
_BOHR= 0.5291772109030000E-10
_ECHARG= 0.1602176634000000E-18
_ENULL= 0.8854187812800001E-11
_MU= 0.1660539066600000E-26
_EMASS= 0.9109383701500001E-30
_AMU2AU=  1822.888486217313    
_CLIGHT=  29979245800.00000    
_EV= 0.3674932217565494E-01
_KJOULE= 0.3808798847133432E-03
_KJOULE/MOL= 0.3808798847133432E-03
_CM= 0.4556335252912009E-05
_CM-1= 0.4556335252912009E-05
_DEB2SI= 0.3335640951981520E-29
_KCAL= 0.1593601437640628E-02
_KCAL/MOL= 0.1593601437640628E-02
_KELVIN= 0.3166811563455608E-05
_HERTZ= 0.1519829846057038E-15
_HZ= 0.1519829846057038E-15
_TOA= 0.5291772109030000    
_TOANG= 0.5291772109030000    
_TORAD= 0.1745329251994330E-01
_TOCM=  219474.6313631965    
_TODEBYE=  2.541746473194078    
_TOE= 0.4803204712570263E-09
_TOEV=  27.21138624598803    
_TOHERTZ=  6579683920501656.    
_TOHZ=  6579683920501656.    
_TOK=  315775.0248040668    
_TOKCAL=  627.5094740630558    
_TOKELVIN=  315775.0248040668    
_TOKJ=  2625.499639479825    
_TOKJOULE=  2625.499639479825    
_TOKG= 0.1660539066600000E-26
_ANG=  1.889726124625770    
_ANGSTROM=  1.889726124625770    
_RPAREF=  0.000000000000000    
_RPADISS=  0.000000000000000    
_IGNORE_UNDEF=  2.000000000000000    
_STRICTCHECK=  0.000000000000000    
!SEWARD=  0.000000000000000    
!MULTI=  0.000000000000000    
!DFMULTI=  0.000000000000000    
!NUMHESS=  0.000000000000000    
_SEW_ONEEL=  0.000000000000000    
_CPPDONE=FALSE
_DKROLL_DONE=  0.000000000000000    
_FNUC_DONE=  0.000000000000000    
_FOCKDONE=TRUE
_GRADONE=FALSE
_HESSDONE=TRUE
_INTDONE=TRUE
_SCFDONE=TRUE
_MODUL_BLOCK=FALSE
_MODUL_SLATER=TRUE
_MODUL_MRCC=FALSE
_MODUL_NBO6=FALSE
_MODUL_NECI=FALSE
_MODUL_AIMS=TRUE
_MODUL_HDF5=FALSE
_MODUL_GECCO=FALSE
_ISWINDOWS=FALSE
_MRCC_EXEC=
_FITC_AO_SAVED=FALSE
_FITC_MO_SAVED=FALSE
_LSTYP=SEWARD
_INTYP=INTS
_GEOMTYP=XYZ
_GRADTYP=ALASKA
_DIRECT=FALSE
_DKHO= -1.000000000000000    
_FNUC=  0.000000000000000    
_SYNCM=  0.000000000000000    
_BASIS=6-311G(D,P)
_ZCENTRE=MASS
_ZORIENT=  1.000000000000000    
_NELEC=  10.00000000000000    
!SPIN=  0.000000000000000    
_OPTCONV= 0.1290363670040972E-04
_QSDSTEP=  0.000000000000000    
_QSDIRC=  0.000000000000000    
_PROGRAM=FREQ
_CPUSTEP= 0.1200000000000000    
_SYSSTEP= 0.9999999999999953E-02
_WALLSTEP= 0.1300000000000000    
!DFSCF=  0.000000000000000    
!SCSGRD=  0.000000000000000    
_NCEN=  3.000000000000000    
_CPUTOT= 0.6699999999999999    
_DFTEXFAC=  1.000000000000000    
_DMX=  0.000000000000000    
_DMY=  0.000000000000000    
_DMZ=-0.8410289968736264    
_DMX_SCF=  0.000000000000000    
_DMY_SCF=  0.000000000000000    
_DMZ_SCF=-0.8410289968736264    
_FREQUENCIES= 0.8956096768993051E-04
_HOMO=  1.200000000000000    
_EHOMO=-0.5006662238476181    
_LUMO=  4.100000000000000    
_ELUMO= 0.1525987471324570    
_ENERGY= -76.04701202779431    
_ENERGY_METHOD=HF
_ENERGY_BASIS=6-311G(D,P)
_GEOMETRY_METHOD=HF
_GEOMETRY_BASIS=6-311G(D,P)
_ENUC=  9.351280166054963    
_GRADENERG= -76.04701202776988    
_GRADEXFAC=  9999.000000000000    
_GRADMETHOD=  1.000000000000000    
_NMRMETHOD=  0.000000000000000    
_NMRMAGNET=  0.000000000000000    
_VIRIAL= 0.5962188195294219E-05
!GRID_FREEZE= -1.000000000000000    
!NEESE_INDEX=  0.000000000000000    
_ITERATIONS=  2.000000000000000    
_LASTNELEC=  10.00000000000000    
_LASTSPIN=  0.000000000000000    
_LASTSYM=  1.000000000000000    
_MPP_PROG=  0.000000000000000    
_MSNSTATES=  0.000000000000000    
_RS2PHASE=  0.000000000000000    
_NPROC_MPP=  1.000000000000000    
_NPROC_SMP=  6.000000000000000    
_NUMSTEP=  0.000000000000000    
_OPTCONVMX= 0.1162430272511307E-04
_OPTCONVRMS= 0.9124249012827318E-05
_OPTGRAD= 0.3311943857236778E-05
_OPTGRADMX= 0.3292289261600310E-05
_OPTGRADRMS= 0.2341897960361256E-05
!GMAXLAST= 0.3292289261600310E-05
!DMAXLAST= 0.1162430272511307E-04
!DELAST= 0.2414575988041179E-06
_OPTSTEP=  4.000000000000000    
_ORBITAL=  2100.200000000000    
_PI=  3.141592653589793    
_SEIG_MIN= 0.1696961166066119E-01
_SEWPROP=TRUE
_STATUS=  1.000000000000000    
_SYSTOT= 0.2400000000000000    
_VERSION=  2024001.000000000    
_WALLTOT= 0.9100000000000000    
_ZPE= 0.2307881066264649E-01
_DATE=17-Oct-24
_LASTORB=0
_OUTPUT=/home/lme/Theoretische_Chemie/Paper/Calc_Paper/h2o/H2O.molpro/run/H2O_1.molpro/H2O_1.out
_PGROUP=C2v
_TIME=08:01:25
_LIBMOL=/usr/local/molpro/molpro_2024.1.0_sockets/lib/
_VIGRDC=  0.000000000000000    
!VIBCNT=  0.000000000000000    
!SURFREC=  0.000000000000000    
!XSURFREC=  0.000000000000000    
!XPOLYREC=  0.000000000000000    
!ROTREC=  0.000000000000000    
!POLYREC=  0.000000000000000    
!DIPREC=  0.000000000000000    
!DIP4DREC=  0.000000000000000    
!DIPROT=  0.000000000000000    
!DIP4DROT=  0.000000000000000    
!PTREC=  0.000000000000000    
!PT4DREC=  0.000000000000000    
!VSCFREC=  0.000000000000000    
!VCIREC=  0.000000000000000    
!PVCIREC=  0.000000000000000    
!VMP2REC=  0.000000000000000    
!VMCSCFREC=  0.000000000000000    
!VMRCIREC=  0.000000000000000    
!VIBSTATEREC=  0.000000000000000    
!VIBSTATECNT=  0.000000000000000    
!VIBINFO=  0.000000000000000    
!GAREC=  0.000000000000000    
!SCFORB=  21002.00000000000    
!DEFCORE=  1.000000000000000    
!SCORE=  0.000000000000000    
!NEWMOL=  0.000000000000000    
!NEWSYM=  0.000000000000000    
_SLFILES=slscratch
_NGSSTO=  9.000000000000000    
_SIN=SIN
_COS=COS
_TAN=TAN
_ACOS=ACOS
_ASIN=ASIN
_ATAN=ATAN
_COSH=COSH
_SINH=SINH
_TANH=TANH
_ABS=ABS
_MOD=MOD
_ERF=ERF
_REFC=REFC
_ERFC=ERFC
_HYPOT=HYPOT
_J0=J0
_J1=J1
_JN=JN
_GAMMA=GAMMA
_LGAMMA=LGAMMA
_Y0=Y0
_Y1=Y1
_YN=YN
_EXP=EXP
_LOG=LOG
_LOG10=LOG10
_SQRT=SQRT
_INT=INT
_NINT=NINT
_MAX=MAX
_MIN=MIN
_COSMO=  0.000000000000000    
_COSMOIT=  0.000000000000000    
_COSMOES=  0.000000000000000    
_COSMOEDS=  0.000000000000000    
_COSMOEC=  0.000000000000000    
_COSMOEDCORR=  0.000000000000000    
_FEPSI=  1.000000000000000    
_SL_IsMM=  0.000000000000000    
_SL_NSYM=  4.000000000000000    
_SL_System_BitSw=  0.000000000000000    
_SL_Unique_atoms=  0.000000000000000    
_SL_GRAD=  0.000000000000000    
_SL_MAXUPD_Hess=  5.000000000000000    
_SL_N_PRINT_COD=  5.000000000000000    
_SL_PRINT_CODES=  0.000000000000000    
_SL_BasType=  0.000000000000000    
_SL_Energy_Pred=  0.000000000000000    
_SL_New_Coords=  0.000000000000000    
_SL_Total_Nuclea=  0.000000000000000    
_SL_Highest_Mltp=  0.000000000000000    
_SL_Ref_Geom=  0.000000000000000    
_SL_Symmetry_ope=  1.000000000000000    
_SL_agrad=  0.000000000000000    
_SL_GrdMax=  0.000000000000000    
_SL_GrdNorm=  0.000000000000000    
_SL_GrdRMS=  0.000000000000000    
_SL_Hss_Q=  0.000000000000000    
_SL_Hss_X=  0.000000000000000    
_SL_BMxOld=  0.000000000000000    
_SL_KtB=  0.000000000000000    
_SL_TROld=  0.000000000000000    
_SL_No_of_Intern=  0.000000000000000    
_SL_Hess=  0.000000000000000    
_SL_K=  0.000000000000000    
!LATTICE= -1.000000000000000    
!NEWLATTICE=  0.000000000000000    
!LATGRAD_VAR=FALSE
!SEW_LATTICE=  1.000000000000000    
!AIC_ONEEL=  0.000000000000000    
!LOCAL=  0.000000000000000    
!SAVEDOM= -1.000000000000000    
!RESTDOM= -1.000000000000000    
!SAVEDOM_HF= -1.000000000000000    
!RESTDOM_HF= -1.000000000000000    
!HESSREC=  5300.200000000000    
!FREQREC=  5400.200000000000    
!NMODREC=  5450.200000000000    
!GTASKS=  0.000000000000000    
!HTASKS=  0.000000000000000    
!SAVEDOM_EOM= -1.000000000000000    
!RESTDOM_EOM= -1.000000000000000    
!GRADSTATE= -1.000000000000000    
!DEBUG=  0.000000000000000    
!CFIT_CPHF=  0.000000000000000    
!RDOMAUX_CPHF=  0.000000000000000    
!THRAO_CPHF= 0.1000000000000000E-11
!THRMO_CPHF= 0.1000000000000000E-11
!THROV_CPHF= 0.1000000000000000E-13
!THRSW_CPHF= 0.1000000000000000E-11
!THRPROD_CPHF= 0.1000000000000000E-11
!THRAOPR_CPHF= 0.1000000000000000E-11
!CFIT_SCFGRD=  0.000000000000000    
!RDOMAUX_SCFGRD=  0.000000000000000    
!THRAO_SCFGRD= 0.1000000000000000E-11
!THRMO_SCFGRD= 0.1000000000000000E-11
!THROV_SCFGRD= 0.1000000000000000E-13
!THRSW_SCFGRD= 0.1000000000000000E-11
!THRPROD_SCFGRD= 0.1000000000000000E-11
!THRAOPR_SCFGRD= 0.1000000000000000E-11
!LOCFIT_SCF=  0.000000000000000    
!LOCFIT_MP2=  0.000000000000000    
_RIDOM=  0.000000000000000    
!CC2_METHOD=  0.000000000000000    
_BASIS2006=FALSE
_SVDDEL= -1.000000000000000    
_SVDDELA= -1.000000000000000    
_SVDDELP= -1.000000000000000    
_SVDDELF= -1.000000000000000    
_SVDDELS= -1.000000000000000    
_SVDDEL_ABS= -1.000000000000000    
_SVDDELA_ABS= -1.000000000000000    
_SVDDELP_ABS= -1.000000000000000    
_SVDDELF_ABS= -1.000000000000000    
_SVDDELS_ABS= -1.000000000000000    
_MAXBASIS=  0.000000000000000    
!OPT_CONICAL=  0.000000000000000    
!CLEARSP_JGRID=  0.000000000000000    
_GRDHYBR=  0.000000000000000    
_STATEGRAD=  1.000000000000000    
_4EXT_NDISKS=  1.000000000000000    
!EMBEDFLAG=  1.000000000000000    
!EMBED=FALSE
!EMBED_F12=FALSE
!EMBEDNUC=  0.000000000000000    
_EMBEDENERGY=  0.000000000000000    
!EMBED_DFC=FALSE
!NUM_VOIDS=  0.000000000000000    
_IBODY=  0.000000000000000    
_EMBE_CORR=  0.000000000000000    
!EMBED_PROJ=FALSE
!EMB_PROJ_ZMU=  1000000.000000000    
!CORRECTION_HF=  0.000000000000000    
!EMBED_AORB=  0.000000000000000    
!EMBED_NACORR=  0.000000000000000    
!EMBED_MP2=FALSE
!EMBED_TRUNC_PERTURBATION=FALSE
!EMBED_FROZEN=  0.000000000000000    
!EMBED_ACTIVE=  0.000000000000000    
_CHANGE_BASIS=FALSE
_RESTORE_BASIS=FALSE
_FIX_EMBED_GUESS=FALSE
_EMBED_SCF=FALSE
_NEOBAS=FALSE
_NEOOVE=FALSE
_PRINEO=FALSE
_HUZINAGA_T=FALSE
_HUZINAGA_F=FALSE
_HUZINAGA=FALSE
_HUZINAGA_CORRECT=FALSE
!FASTLATGRAD=  1.000000000000000    
!FASTVLAMBDA= -1.000000000000000    
!IFORCE= -1.000000000000000    
!USESYM= -1.000000000000000    
_SINDEX=  0.000000000000000    
_AVDOM_OSV=  0.000000000000000    
_AVDOM_PNO=  0.000000000000000    
_AVDOM_PNOCC=  0.000000000000000    
_AVDOM_TNO=  0.000000000000000    
_AVDOM_TNOIT=  0.000000000000000    
_AVDOM_PAO=  0.000000000000000    
_AVDOM_LMO=  0.000000000000000    
_CC2OSV_FLAG=  0.000000000000000    
_EOMCCSD_CONV=FALSE
_TMADC2_FLAG=FALSE
_PROPADC2_FLAG=FALSE
_LEN_VirQ=  0.000000000000000    
_GRDCC2LR_FLAG=FALSE
_GRDADC2_FLAG=FALSE
_RO_VGLOBAL=  0.000000000000000    
_OPT=FALSE
_FREQ=FALSE
_HESS=FALSE
_CMRCC_callName=EMPTY
_CMRCC_callCount=  0.000000000000000    
_GECCO_CIROOT=  1.000000000000000    
_SYM_CATION=  2.000000000000000    
_MON_A=FALSE
_MON_B=FALSE
_MAXGEOM=  100.0000000000000    
!MAXGEOM=  100.0000000000000    
_NCORE=  0.000000000000000    
_NLARGECORE=  0.000000000000000    
GX1=  0.000000000000000    
GY1=  0.000000000000000    
GZ1= 0.6377117930246874E-01
GX2=  0.000000000000000    
GY2= 0.7488258449677612    
GZ2=-0.5060473165166821    
GX3=  0.000000000000000    
GY3=-0.7488258449677612    
GZ3=-0.5060473165166821    
OX1=  0.000000000000000    
OY1=  0.000000000000000    
OZ1= 0.1205100635260694    
HX2=  0.000000000000000    
HY2=  1.415075762030545    
HZ2=-0.9562908343183402    
HX3=  0.000000000000000    
HY3= -1.415075762030545    
HZ3=-0.9562908343183402    
[Atoms] Angs
O     1    8         0.0000000000        0.0000000000        0.0637711793
H     2    1         0.0000000000        0.7488258450       -0.5060473165
H     3    1         0.0000000000       -0.7488258450       -0.5060473165
[GTO]
   1 0
 s    6  1.00
  0.8588500000D+04  0.1895150083D-02
  0.1297230000D+04  0.1438590063D-01
  0.2992960000D+03  0.7073200310D-01
  0.8737710000D+02  0.2400010105D+00
  0.2567890000D+02  0.5947970261D+00
  0.3740040000D+01  0.2808020123D+00
 s    3  1.00
  0.4211750000D+02  0.1138890124D+00
  0.9628370000D+01  0.9208111006D+00
  0.2853320000D+01 -0.3274470358D-02
 s    1  1.00
  0.9056610000D+00  0.1000000000D+01
 s    1  1.00
  0.2556110000D+00  0.1000000000D+01
 p    3  1.00
  0.4211750000D+02  0.3651139738D-01
  0.9628370000D+01  0.2371529830D+00
  0.2853320000D+01  0.8197019412D+00
 p    1  1.00
  0.9056610000D+00  0.1000000000D+01
 p    1  1.00
  0.2556110000D+00  0.1000000000D+01
 d    1  1.00
  0.1292000000D+01  0.1000000000D+01
  
   2 0
 s    3  1.00
  0.3386500000D+02  0.2549381454D-01
  0.5094790000D+01  0.1903731086D+00
  0.1158790000D+01  0.8521614860D+00
 s    1  1.00
  0.3258400000D+00  0.1000000000D+01
 s    1  1.00
  0.1027410000D+00  0.1000000000D+01
 p    1  1.00
  0.7500000000D+00  0.1000000000D+01
  
   3 0
 s    3  1.00
  0.3386500000D+02  0.2549381454D-01
  0.5094790000D+01  0.1903731086D+00
  0.1158790000D+01  0.8521614860D+00
 s    1  1.00
  0.3258400000D+00  0.1000000000D+01
 s    1  1.00
  0.1027410000D+00  0.1000000000D+01
 p    1  1.00
  0.7500000000D+00  0.1000000000D+01


[MO]
 Sym=      1.1
 Ene=     -20.5413
 Spin= Alpha
 Occup=    2.000000
1 0.55142989300581
2 0.47167849779154
3 0.005566602785381
4 -0.000465163405054
5 0.0
6 0.0
7 -0.001785222703107
8 0.0
9 0.0
10 0.000617652286839
11 0.0
12 0.0
13 -0.000094627489104
14 0.000115378640311
15 -0.000097568774533
16 -0.000017809865777
17 0.0
18 0.0
19 0.0
20 0.000208611731798
21 0.000083188887955
22 0.000098883416252
23 0.0
24 -0.000070287078595
25 0.000010886901799
26 0.000208611731798
27 0.000083188887955
28 0.000098883416252
29 0.0
30 0.000070287078595
31 0.000010886901799
 Sym=      2.1
 Ene=      -1.3491
 Spin= Alpha
 Occup=    2.000000
1 -0.11335954008739
2 -0.18935716184840
3 0.53787734216228
4 0.37190453065855
5 0.0
6 0.0
7 -0.038031298804674
8 0.0
9 0.0
10 -0.063144951990348
11 0.0
12 0.0
13 -0.020779461772043
14 -0.008344511382919
15 0.005582217918713
16 0.002762293464206
17 0.0
18 0.0
19 0.0
20 0.096562575072697
21 0.081307884113038
22 -0.002674934821020
23 0.0
24 -0.023857744490935
25 0.014411959963488
26 0.096562575072697
27 0.081307884113038
28 -0.002674934821020
29 0.0
30 0.023857744490935
31 0.014411959963488
 Sym=      1.3
 Ene=      -0.7172
 Spin= Alpha
 Occup=    2.000000
1 0.0
2 0.0
3 0.0
4 0.0
5 0.0
6 0.22737906927624
7 0.0
8 0.0
9 0.34886177640018
10 0.0
11 0.0
12 0.21178432289306
13 0.0
14 0.0
15 0.0
16 0.0
17 0.0
18 0.0
19 -0.029327230286764
20 0.15126546454870
21 0.21225549285727
22 0.054487542341243
23 0.0
24 -0.018707187815924
25 0.025670992114284
26 -0.15126546454870
27 -0.21225549285727
28 -0.054487542341243
29 0.0
30 -0.018707187815924
31 -0.025670992114284
 Sym=      3.1
 Ene=      -0.5729
 Spin= Alpha
 Occup=    2.000000
1 -0.038140091420514
2 -0.064860195982765
3 0.19645676300352
4 0.33484860754265
5 0.0
6 0.0
7 0.25569174879496
8 0.0
9 0.0
10 0.37818685987156
11 0.0
12 0.0
13 0.33999194635364
14 0.012876260455372
15 0.004108841505241
16 -0.016985101960613
17 0.0
18 0.0
19 0.0
20 -0.087465322483633
21 -0.14600255759754
22 -0.027263581793922
23 0.0
24 0.029719094909081
25 0.009565658338148
26 -0.087465322483633
27 -0.14600255759754
28 -0.027263581793922
29 0.0
30 -0.029719094909081
31 0.009565658338148
 Sym=      1.2
 Ene=      -0.5007
 Spin= Alpha
 Occup=    2.000000
1 0.0
2 0.0
3 0.0
4 0.0
5 0.29169577961640
6 0.0
7 0.0
8 0.43668228217048
9 0.0
10 0.0
11 0.46587791990653
12 0.0
13 0.0
14 0.0
15 0.0
16 0.0
17 0.0
18 -0.017140433723912
19 0.0
20 0.0
21 0.0
22 0.0
23 0.031532231012210
24 0.0
25 0.0
26 0.0
27 0.0
28 0.0
29 0.031532231012210
30 0.0
31 0.0
 Sym=      4.1
 Ene=       0.1526
 Spin= Alpha
 Occup=    0.000000
1 0.033502774410364
2 0.054636206416339
3 -0.10269999628558
4 -0.85277767278074
5 0.0
6 0.0
7 0.071584829560157
8 0.0
9 0.0
10 0.11395098689209
11 0.0
12 0.0
13 0.19992339062336
14 0.005458389320049
15 -0.000897656219446
16 -0.004560733100603
17 0.0
18 0.0
19 0.0
20 0.034136692679101
21 -0.068275350228201
22 0.84442406469795
23 0.0
24 0.005125119481812
25 0.003810149245991
26 0.034136692679101
27 -0.068275350228201
28 0.84442406469795
29 0.0
30 -0.005125119481812
31 0.003810149245991
 Sym=      2.3
 Ene=       0.2186
 Spin= Alpha
 Occup=    0.000000
1 0.0
2 0.0
3 0.0
4 0.0
5 0.0
6 -0.12023558196126
7 0.0
8 0.0
9 -0.12746363364468
10 0.0
11 0.0
12 -0.49546846246347
13 0.0
14 0.0
15 0.0
16 0.0
17 0.0
18 0.0
19 0.005536347041367
20 0.023623950871788
21 -0.13011048273685
22 1.58003264079567
23 0.0
24 0.008852266123453
25 -0.008184796173327
26 -0.023623950871788
27 0.13011048273685
28 -1.58003264079567
29 0.0
30 0.008852266123453
31 0.008184796173327
 Sym=      3.3
 Ene=       0.5772
 Spin= Alpha
 Occup=    0.000000
1 0.0
2 0.0
3 0.0
4 0.0
5 0.0
6 -0.12034088112473
7 0.0
8 0.0
9 -0.18575151925726
10 0.0
11 0.0
12 -1.17096369809745
13 0.0
14 0.0
15 0.0
16 0.0
17 0.0
18 0.0
19 -0.013019112905450
20 0.079808488148150
21 1.48644332357526
22 -0.72178502237097
23 0.0
24 -0.026218367268673
25 -0.002722994667637
26 -0.079808488148150
27 -1.48644332357526
28 0.72178502237097
29 0.0
30 -0.026218367268673
31 0.002722994667637
 Sym=      5.1
 Ene=       0.6207
 Spin= Alpha
 Occup=    0.000000
1 0.033596398443349
2 0.059028160503603
3 -0.13501013515131
4 -1.48864350234749
5 0.0
6 0.0
7 0.096016752215036
8 0.0
9 0.0
10 0.18558723669765
11 0.0
12 0.0
13 1.08845243388870
14 -0.001401347480685
15 0.012669342000717
16 -0.011267994520032
17 0.0
18 0.0
19 0.0
20 0.062656139807785
21 1.85072048789616
22 -0.60057551378351
23 0.0
24 -0.036897899520297
25 0.044616782021203
26 0.062656139807785
27 1.85072048789616
28 -0.60057551378351
29 0.0
30 0.036897899520297
31 0.044616782021203
 Sym=      6.1
 Ene=       0.9975
 Spin= Alpha
 Occup=    0.000000
1 0.012908022533632
2 0.024137170985718
3 -0.046479314287991
4 -0.95095978614248
5 0.0
6 0.0
7 -0.23503529171889
8 0.0
9 0.0
10 -0.73590220064361
11 0.0
12 0.0
13 1.56770141598158
14 0.013062682759106
15 -0.017642502761865
16 0.004579820002759
17 0.0
18 0.0
19 0.0
20 0.033765172316036
21 0.57477408784258
22 0.11535569026133
23 0.0
24 -0.15198467132848
25 0.099404947611390
26 0.033765172316036
27 0.57477408784258
28 0.11535569026133
29 0.0
30 0.15198467132848
31 0.099404947611390
 Sym=      2.2
 Ene=       1.0031
 Spin= Alpha
 Occup=    0.000000
1 0.0
2 0.0
3 0.0
4 0.0
5 -0.23940065068913
6 0.0
7 0.0
8 -0.83600700586099
9 0.0
10 0.0
11 1.15633091095712
12 0.0
13 0.0
14 0.0
15 0.0
16 0.0
17 0.0
18 0.008395932220553
19 0.0
20 0.0
21 0.0
22 0.0
23 -0.027705935491855
24 0.0
25 0.0
26 0.0
27 0.0
28 0.0
29 -0.027705935491855
30 0.0
31 0.0
 Sym=      4.3
 Ene=       1.1114
 Spin= Alpha
 Occup=    0.000000
1 0.0
2 0.0
3 0.0
4 0.0
5 0.0
6 -0.24104373463528
7 0.0
8 0.0
9 -0.70500311125832
10 0.0
11 0.0
12 1.80249133358781
13 0.0
14 0.0
15 0.0
16 0.0
17 0.0
18 0.0
19 -0.031834561790514
20 -0.019633795922333
21 -0.34715742741723
22 -0.80113413535319
23 0.0
24 0.17438966089610
25 -0.14573686923860
26 0.019633795922333
27 0.34715742741723
28 0.80113413535319
29 0.0
30 0.17438966089610
31 0.14573686923860
 Sym=      7.1
 Ene=       1.3105
 Spin= Alpha
 Occup=    0.000000
1 0.099742144867691
2 0.20421057458365
3 -1.48624425295340
4 3.19029314523372
5 0.0
6 0.0
7 0.028033523293516
8 0.0
9 0.0
10 -0.17804711155965
11 0.0
12 0.0
13 -0.58780945842950
14 -0.035644153005777
15 0.007509486403795
16 0.028134666601983
17 0.0
18 0.0
19 0.0
20 0.008823176603334
21 -0.88715983840245
22 -0.35674459554210
23 0.0
24 0.18388187960312
25 -0.36902248785357
26 0.008823176603334
27 -0.88715983840245
28 -0.35674459554210
29 0.0
30 -0.18388187960312
31 -0.36902248785357
 Sym=      8.1
 Ene=       1.4982
 Spin= Alpha
 Occup=    0.000000
1 0.033436840108863
2 0.069325658255877
3 -0.58498105566120
4 2.05780709544681
5 0.0
6 0.0
7 -0.014848581791607
8 0.0
9 0.0
10 -0.12068367176657
11 0.0
12 0.0
13 -1.24349563709216
14 0.008602043323150
15 0.10786020475732
16 -0.11646224808047
17 0.0
18 0.0
19 0.0
20 0.084222989574845
21 -1.20386973453449
22 0.029170806076291
23 0.0
24 0.59810025178558
25 0.42787862206068
26 0.084222989574845
27 -1.20386973453449
28 0.029170806076291
29 0.0
30 -0.59810025178558
31 0.42787862206068
 Sym=      1.4
 Ene=       1.5159
 Spin= Alpha
 Occup=    0.000000
1 0.0
2 0.0
3 0.0
4 0.0
5 0.0
6 0.0
7 0.0
8 0.0
9 0.0
10 0.0
11 0.0
12 0.0
13 0.0
14 0.0
15 0.0
16 0.0
17 0.12196124462140
18 0.0
19 0.0
20 0.0
21 0.0
22 0.0
23 0.68970717094751
24 0.0
25 0.0
26 0.0
27 0.0
28 0.0
29 -0.68970717094751
30 0.0
31 0.0
 Sym=      3.2
 Ene=       1.7269
 Spin= Alpha
 Occup=    0.000000
1 0.0
2 0.0
3 0.0
4 0.0
5 -0.052895708962322
6 0.0
7 0.0
8 -0.075166003251530
9 0.0
10 0.0
11 -0.55154596888431
12 0.0
13 0.0
14 0.0
15 0.0
16 0.0
17 0.0
18 -0.14547252668412
19 0.0
20 0.0
21 0.0
22 0.0
23 0.77200363446873
24 0.0
25 0.0
26 0.0
27 0.0
28 0.0
29 0.77200363446873
30 0.0
31 0.0
 Sym=      5.3
 Ene=       1.9304
 Spin= Alpha
 Occup=    0.000000
1 0.0
2 0.0
3 0.0
4 0.0
5 0.0
6 0.015159020195070
7 0.0
8 0.0
9 0.027440614060482
10 0.0
11 0.0
12 -0.94917665436391
13 0.0
14 0.0
15 0.0
16 0.0
17 0.0
18 0.0
19 0.079138368912833
20 -0.19090963639306
21 0.78720686308333
22 -0.16050066866654
23 0.0
24 0.48082207969559
25 0.65140225130705
26 0.19090963639306
27 -0.78720686308333
28 0.16050066866654
29 0.0
30 0.48082207969559
31 -0.65140225130705
 Sym=      6.3
 Ene=       2.2775
 Spin= Alpha
 Occup=    0.000000
1 0.0
2 0.0
3 0.0
4 0.0
5 0.0
6 -0.17652923410745
7 0.0
8 0.0
9 -0.46802227289354
10 0.0
11 0.0
12 0.027122707634697
13 0.0
14 0.0
15 0.0
16 0.0
17 0.0
18 0.0
19 -0.25259647641491
20 0.71315272171426
21 -0.74249285387125
22 0.54210958022912
23 0.0
24 -0.24920973948459
25 0.46723893808306
26 -0.71315272171426
27 0.74249285387125
28 -0.54210958022912
29 0.0
30 -0.24920973948459
31 -0.46723893808306
 Sym=      9.1
 Ene=       2.3979
 Spin= Alpha
 Occup=    0.000000
1 0.024145672521406
2 0.042089219243069
3 -0.14352293104530
4 0.41808862913724
5 0.0
6 0.0
7 0.16064776324124
8 0.0
9 0.0
10 0.15931409146506
11 0.0
12 0.0
13 -0.32975160555036
14 -0.29203658395177
15 0.21558752370495
16 0.076449060246828
17 0.0
18 0.0
19 0.0
20 0.94232363830394
21 -1.34183711601288
22 0.43146922205010
23 0.0
24 -0.17345330686858
25 0.033163243346204
26 0.94232363830394
27 -1.34183711601288
28 0.43146922205010
29 0.0
30 0.17345330686858
31 0.033163243346204
 Sym=     10.1
 Ene=       2.6102
 Spin= Alpha
 Occup=    0.000000
1 -0.060073614116389
2 -0.14044319378394
3 1.00828706353586
4 1.83750121527909
5 0.0
6 0.0
7 -0.039618046982109
8 0.0
9 0.0
10 -0.72087252220367
11 0.0
12 0.0
13 -0.73333193604733
14 0.051514639044507
15 -0.004265487189862
16 -0.047249151854645
17 0.0
18 0.0
19 0.0
20 0.43167007872389
21 -1.90342322969357
22 0.21676424500723
23 0.0
24 0.96209379034117
25 -0.67890033090278
26 0.43167007872389
27 -1.90342322969357
28 0.21676424500723
29 0.0
30 -0.96209379034117
31 -0.67890033090278
 Sym=      7.3
 Ene=       2.7685
 Spin= Alpha
 Occup=    0.000000
1 0.0
2 0.0
3 0.0
4 0.0
5 0.0
6 -0.015072539407656
7 0.0
8 0.0
9 -0.97024656522303
10 0.0
11 0.0
12 -0.73230695233794
13 0.0
14 0.0
15 0.0
16 0.0
17 0.0
18 0.0
19 0.23827578160816
20 -0.72892168611986
21 2.13095571633780
22 -0.50209735531333
23 0.0
24 -0.95024438878578
25 0.68788968398681
26 0.72892168611986
27 -2.13095571633780
28 0.50209735531333
29 0.0
30 -0.95024438878578
31 -0.68788968398681
 Sym=      4.2
 Ene=       3.5053
 Spin= Alpha
 Occup=    0.000000
1 0.0
2 0.0
3 0.0
4 0.0
5 -0.023843967393702
6 0.0
7 0.0
8 0.009419976201024
9 0.0
10 0.0
11 -0.27523013966780
12 0.0
13 0.0
14 0.0
15 0.0
16 0.0
17 0.0
18 1.03733686648764
19 0.0
20 0.0
21 0.0
22 0.0
23 0.36683803139964
24 0.0
25 0.0
26 0.0
27 0.0
28 0.0
29 0.36683803139964
30 0.0
31 0.0
 Sym=      2.4
 Ene=       3.5721
 Spin= Alpha
 Occup=    0.000000
1 0.0
2 0.0
3 0.0
4 0.0
5 0.0
6 0.0
7 0.0
8 0.0
9 0.0
10 0.0
11 0.0
12 0.0
13 0.0
14 0.0
15 0.0
16 0.0
17 1.06006483633860
18 0.0
19 0.0
20 0.0
21 0.0
22 0.0
23 -0.35117597927106
24 0.0
25 0.0
26 0.0
27 0.0
28 0.0
29 0.35117597927106
30 0.0
31 0.0
 Sym=     11.1
 Ene=       3.7381
 Spin= Alpha
 Occup=    0.000000
1 -0.002617688512566
2 -0.005333992451643
3 -0.029349042517713
4 0.86146113144860
5 0.0
6 0.0
7 -0.059059449285397
8 0.0
9 0.0
10 -0.050537174785142
11 0.0
12 0.0
13 -0.67660964858678
14 -0.47285468100778
15 -0.61061768661336
16 1.08347236762114
17 0.0
18 0.0
19 0.0
20 -0.027082946652205
21 -0.57234247731323
22 0.028385274593147
23 0.0
24 0.42413036242764
25 0.23274538886307
26 -0.027082946652205
27 -0.57234247731323
28 0.028385274593147
29 0.0
30 -0.42413036242764
31 0.23274538886307
 Sym=     12.1
 Ene=       4.0353
 Spin= Alpha
 Occup=    0.000000
1 0.024613694843773
2 0.049670167160225
3 -0.18782966444018
4 -2.00080180348846
5 0.0
6 0.0
7 0.31727567344589
8 0.0
9 0.0
10 0.13208397371675
11 0.0
12 0.0
13 0.89592247980513
14 0.99799022254119
15 -0.94979699941305
16 -0.048193223128142
17 0.0
18 0.0
19 0.0
20 0.35224871524034
21 1.03747923804743
22 0.059507240155105
23 0.0
24 -0.56005828667766
25 0.48259671381055
26 0.35224871524034
27 1.03747923804743
28 0.059507240155105
29 0.0
30 0.56005828667766
31 0.48259671381055
 Sym=      8.3
 Ene=       4.2823
 Spin= Alpha
 Occup=    0.000000
1 0.0
2 0.0
3 0.0
4 0.0
5 0.0
6 -0.46764954579294
7 0.0
8 0.0
9 0.028051930781890
10 0.0
11 0.0
12 -0.92184902248895
13 0.0
14 0.0
15 0.0
16 0.0
17 0.0
18 0.0
19 1.14893937927592
20 0.44147747011076
21 0.48386929164067
22 0.24465247840520
23 0.0
24 -0.46732023971095
25 0.33994858427245
26 -0.44147747011076
27 -0.48386929164067
28 -0.24465247840520
29 0.0
30 -0.46732023971095
31 -0.33994858427245
 Sym=      5.2
 Ene=       5.3305
 Spin= Alpha
 Occup=    0.000000
1 0.0
2 0.0
3 0.0
4 0.0
5 1.27075925804678
6 0.0
7 0.0
8 -1.37564984804805
9 0.0
10 0.0
11 0.47597941072266
12 0.0
13 0.0
14 0.0
15 0.0
16 0.0
17 0.0
18 0.033345478502283
19 0.0
20 0.0
21 0.0
22 0.0
23 0.065955690946675
24 0.0
25 0.0
26 0.0
27 0.0
28 0.0
29 0.065955690946675
30 0.0
31 0.0
 Sym=     13.1
 Ene=       5.7620
 Spin= Alpha
 Occup=    0.000000
1 -0.024084721909418
2 -0.045614674937768
3 0.26313783528361
4 1.05995189653017
5 0.0
6 0.0
7 1.25924842629306
8 0.0
9 0.0
10 -1.73379566542544
11 0.0
12 0.0
13 0.078068920333452
14 -0.37370848927291
15 0.27604905948956
16 0.097659429783349
17 0.0
18 0.0
19 0.0
20 -0.30701881938854
21 -0.52193501279725
22 -0.014886476028809
23 0.0
24 0.48404226353943
25 -0.26710649919085
26 -0.30701881938854
27 -0.52193501279725
28 -0.014886476028809
29 0.0
30 -0.48404226353943
31 -0.26710649919085
 Sym=      9.3
 Ene=       6.2580
 Spin= Alpha
 Occup=    0.000000
1 0.0
2 0.0
3 0.0
4 0.0
5 0.0
6 -1.25457965881850
7 0.0
8 0.0
9 2.05654234306154
10 0.0
11 0.0
12 -0.13086031869212
13 0.0
14 0.0
15 0.0
16 0.0
17 0.0
18 0.0
19 -0.67850252949816
20 -0.39809674253230
21 -0.51208357046697
22 0.14557793201243
23 0.0
24 0.54698644099432
25 -0.47657312224391
26 0.39809674253230
27 0.51208357046697
28 -0.14557793201243
29 0.0
30 0.54698644099432
31 0.47657312224391
 Sym=     14.1
 Ene=      51.5750
 Spin= Alpha
 Occup=    0.000000
1 -2.24731788797926
2 2.33737785581078
3 -0.27406503427886
4 0.056461712039046
5 0.0
6 0.0
7 -0.019340035364929
8 0.0
9 0.0
10 0.077190082215213
11 0.0
12 0.0
13 0.015742065455088
14 0.026082175157023
15 -0.022712282769103
16 -0.003369892387920
17 0.0
18 0.0
19 0.0
20 0.008747278210926
21 0.077727428652948
22 -0.031125747778042
23 0.0
24 -0.065696718403614
25 0.048152991469359
26 0.008747278210926
27 0.077727428652948
28 -0.031125747778042
29 0.0
30 0.065696718403614
31 0.048152991469359
 [FREQ]
      0.00
      0.00
      0.00
      0.00
      0.00
      0.00
   1750.94
   4142.11
   4237.38
 [FR-COORD]
O          0.0000000000        0.0000000000        0.1205100635
H          0.0000000000        1.4150757620       -0.9562908343
H          0.0000000000       -1.4150757620       -0.9562908343
 [FR-NORM-COORD]
 Vibration                    1
         -0.00000000          0.15975724          0.08353679
          0.44856916          0.02987907         -0.08714236
         -0.44855960          0.02987907          0.25421593
 Vibration                    2
         -0.00000000         -0.02277359          0.18978605
         -0.31347679         -0.17474943         -0.00993270
          0.31812906         -0.17474943          0.38950479
 Vibration                    3
         -0.00000000          0.02113306         -0.00754340
          0.64829514          0.01532757         -0.01517267
          0.75050518          0.01532757          0.00008588
 Vibration                    4
          0.25003978          0.00000000         -0.00000000
          0.00000000          0.00000000         -0.00000000
          0.00000000          0.00000000          0.00000000
 Vibration                    5
         -0.00000000          0.17658326         -0.05837129
         -0.52070060          0.12205165         -0.13003390
          0.35394614          0.12205165          0.01329132
 Vibration                    6
         -0.00000000          0.01516192          0.09519314
         -0.03657955          0.39823181          0.59860368
          0.03588935          0.39823181         -0.40821741
 Vibration                    7
          0.00000000         -0.00000000         -0.06772092
         -0.00000000          0.41344571          0.53738997
          0.00000000         -0.41344571          0.53738997
 Vibration                    8
         -0.00000000          0.00000000          0.04909973
          0.00000000          0.57024602         -0.38962407
         -0.00000000         -0.57024602         -0.38962407
 Vibration                    9
         -0.00000000         -0.06797601         -0.00000000
         -0.00000000          0.53941416         -0.41046683
          0.00000000          0.53941416          0.41046683
