
 Working directory              : /tmp/lme/molpro.Qd1PJzLE4l/
 Global scratch directory       : /tmp/lme/molpro.Qd1PJzLE4l/
 Wavefunction directory         : /home/lme/wfu/
 Main file repository           : /tmp/lme/molpro.Qd1PJzLE4l/

 id        : liedlgroup

 Nodes     nprocs
 sv1-c724     1
 GA implementation: MPI file
 GA implementation (serial work in mppx): MPI file

 Using customized tuning parameters: mindgm=1; mindgv=20; mindgc=4; mindgr=1; noblas=0; minvec=7
 default implementation of scratch files=df  


 Variables initialized (1042), CPU time= 0.00 sec
 
                  orient,mass
                  geometry=/home/lme/Theoretische_Chemie/Nomodeco/pubchempy_integration/water.xyz
 Including file /home/lme/Theoretische_Chemie/Nomodeco/pubchempy_integration/water.xyz
                  mass,H2=2.014                                                  ! Set custom mass for hydrogen
                  basis=6-311g(d,p)
                  {hf
                  start, atden}
                  optg;
                  {frequencies, symm=auto, print=0, analytical}
                  put, molden, water.molden
 Commands initialized (847), CPU time= 0.01 sec, 718 directives.
 Default parameters read. Elapsed time= 0.07 sec

 Checking input...
 Passed
1


                                         ***  PROGRAM SYSTEM MOLPRO  ***
                                       Copyright, TTI GmbH Stuttgart, 2015
                                    Version 2024.1 linked Wed Jan 31 11:42:09 2024


 **********************************************************************************************************************************
 LABEL *                                                                                                                                                                 
  (6 PROC) 64 bit serial version                                                         DATE: 22-Sep-24          TIME: 19:45:13  
 **********************************************************************************************************************************

 SHA1:             675817fde4514a4a933b69e420913a90cee4ef91
 **********************************************************************************************************************************

 Memory per process:        32 MW
 Total memory per node:     32 MW

 GA preallocation disabled
 GA check disabled

 Variable memory set to 32.0 MW

 ZCENTRE=MASS


 Geometry recognized as XYZ


 SETTING MASS FOR H2   (Z=  1)   TO   2.014
 SETTING BASIS          =    6-311G(D,P)


 Recomputing integrals since basis changed


 Using spherical harmonics

 Library entry O      S 6-311G               selected for orbital group  1
 Library entry O      P 6-311G               selected for orbital group  1
 Library entry O      D 6-311G*              selected for orbital group  1
 Library entry H      S 6-311G               selected for orbital group  2
 Library entry H      P 6-311G**             selected for orbital group  2


 PROGRAM * SEWARD (Integral evaluation for generally contracted gaussian basis sets)     Author: Roland Lindh, 1990

 Geometry written to block  1 of record 700

 Orientation using atomic masses  
 Molecule type: Asymmetric top
 Symmetry elements: X
 Rotational constants:     191.7610270    268.4648061    671.1675419 GHz  (calculated with average atomic masses)

 Point group  Cs  



 ATOMIC COORDINATES

 NR  ATOM    CHARGE       X              Y              Z

   1  O1      8.00    0.000000000   -0.138652461   -0.136715049
   2  H2      1.00    0.000000000    0.380966402    1.619136236
   3  H3      1.00    0.000000000    1.439658959   -1.065124532

 Bond lengths in Bohr (Angstrom)

 1-2  1.831124655  1-3  1.831122909
     ( 0.968989438)     ( 0.968988514)

 Bond angles

  2-1-3  103.97994237

 NUCLEAR CHARGE:                   10
 NUMBER OF PRIMITIVE AOS:          48
 NUMBER OF SYMMETRY AOS:           47
 NUMBER OF CONTRACTIONS:           30   (   23A'  +    7A"  )
 NUMBER OF INNER CORE ORBITALS:     0   (    0A'  +    0A"  )
 NUMBER OF OUTER CORE ORBITALS:     1   (    1A'  +    0A"  )
 NUMBER OF VALENCE ORBITALS:        6   (    5A'  +    1A"  )


 NUCLEAR REPULSION ENERGY    9.08436451

 Eigenvalues of metric

         1 0.187E-01 0.424E-01 0.903E-01 0.995E-01 0.114E+00 0.128E+00 0.149E+00 0.293E+00
         2 0.215E+00 0.461E+00 0.660E+00 0.909E+00 0.119E+01 0.130E+01 0.227E+01


 Contracted 2-electron integrals neglected if value below      1.0D-11
 AO integral compression algorithm  1   Integral accuracy      1.0D-11

     0.524 MB (compressed) written to integral file ( 91.8%)


 NUMBER OF SORTED TWO-ELECTRON INTEGRALS:      61816.     BUFFER LENGTH:  32768
 NUMBER OF SEGMENTS:   1  SEGMENT LENGTH:      61816      RECORD LENGTH: 524288

 Memory used in sort:       0.62 MW

 SORT1 READ       79218. AND WROTE       55476. INTEGRALS IN      1 RECORDS. CPU TIME:     0.00 SEC, REAL TIME:     0.00 SEC
 SORT2 READ       55476. AND WROTE       61816. INTEGRALS IN      2 RECORDS. CPU TIME:     0.00 SEC, REAL TIME:     0.00 SEC

 FILE SIZES:   FILE 1:    30.6 MBYTE,  FILE 4:     4.3 MBYTE,   TOTAL:     34.8 MBYTE

 OPERATOR DM      FOR CENTER  0  COORDINATES:    0.000000    0.000000    0.000000


 **********************************************************************************************************************************
 DATASETS  * FILE   NREC   LENGTH (MB)   RECORD NAMES
              1      19       28.95       500      610      700      900      950      970     1000      129      960     1100   
                                          VAR    BASINP    GEOM    SYMINP    ZMAT    AOBASIS   BASIS     P2S    ABASIS      S 
                                         1400     1410     1200     1210     1080     1600     1650     1300     1700   
                                           T        V       H0       H01     AOSYM     SMH    MOLCAS    ERIS     OPER   

 PROGRAMS   *        TOTAL       INT
 CPU TIMES  *         0.20      0.10
 REAL TIME  *         0.27 SEC
 DISK USED  *        33.56 MB
 **********************************************************************************************************************************


 Program * Restricted Hartree-Fock

 Orbital guess generated from atomic densities.

 Initial occupancy:   4   1

 NELEC=   10   SYM=1   MS2= 0   THRE=1.0D-08   THRD=1.0D-06   THRG=1.0D-06  HFMA2=F  DIIS_START=2   DIIS_MAX=10   DIIS_INCORE=F

 Level shifts:    0.00 (CLOSED)    0.00 (OPEN)    0.30 (GAP_MIN)

 ITER           ETOT              DE          GRAD        DDIFF     DIIS  NEXP   TIME(IT)  TIME(TOT)  DIAG
   1      -76.00564440     -76.00564440     0.00D+00     0.11D+00     0     0       0.00      0.01    start
   2      -76.03554698      -0.02990258     0.24D-01     0.18D-01     1     0       0.00      0.01    diag
   3      -76.04514060      -0.00959362     0.14D-01     0.61D-02     2     0       0.00      0.01    diag
   4      -76.04535800      -0.00021740     0.14D-02     0.11D-02     3     0       0.00      0.01    diag
   5      -76.04537979      -0.00002179     0.40D-03     0.47D-03     4     0       0.00      0.01    diag
   6      -76.04538053      -0.00000074     0.65D-04     0.81D-04     5     0       0.00      0.01    diag
   7      -76.04538055      -0.00000002     0.11D-04     0.14D-04     6     0       0.00      0.01    diag
   8      -76.04538055      -0.00000000     0.13D-05     0.17D-05     7     0       0.00      0.01    fixocc
   9      -76.04538055      -0.00000000     0.12D-06     0.21D-06     8     0       0.00      0.01    diag
  10      -76.04538055      -0.00000000     0.25D-07     0.19D-07     0     0       0.00      0.01    diag/orth

 Final occupancy:   4   1

 !RHF STATE 1.1 Energy                -76.045380548770
  RHF One-electron energy            -122.955169304564
  RHF Two-electron energy              37.825424244109
  RHF Kinetic energy                   76.014631123680
  RHF Nuclear energy                    9.084364511684
  RHF Virial quotient                  -1.000404519823

 !RHF STATE 1.1 Dipole moment           0.00000000     0.79934594     0.31526863
 Dipole moment /Debye                   0.00000000     2.03173472     0.80133292

 Orbital energies:

           1.1          2.1          3.1          4.1          5.1          6.1
    -20.547330    -1.335813    -0.699153    -0.570751     0.148615     0.215760

           1.2          2.2          3.2
     -0.499114     1.003930     1.513977


 HOMO      1.2    -0.499114 =     -13.5816eV
 LUMO      5.1     0.148615 =       4.0440eV
 LUMO-HOMO         0.647729 =      17.6256eV

 Orbitals saved in record  2100.2


 **********************************************************************************************************************************
 DATASETS  * FILE   NREC   LENGTH (MB)   RECORD NAMES
              1      19       28.95       500      610      700      900      950      970     1000      129      960     1100   
                                          VAR    BASINP    GEOM    SYMINP    ZMAT    AOBASIS   BASIS     P2S    ABASIS      S 
                                         1400     1410     1200     1210     1080     1600     1650     1300     1700   
                                           T        V       H0       H01     AOSYM     SMH    MOLCAS    ERIS     OPER   

              2       4        0.42       700     1000      520     2100   
                                         GEOM     BASIS   MCVARS     RHF  

 PROGRAMS   *        TOTAL    HF-SCF       INT
 CPU TIMES  *         0.22      0.02      0.10
 REAL TIME  *         0.29 SEC
 DISK USED  *        33.56 MB
 **********************************************************************************************************************************


 PROGRAM * OPT (Geometry optimization)     Authors: F. Eckert and H.-J. Werner


 BFGS update of hessian

 *** Long output written to logfile /home/lme/Theoretische_Chemie/Nomodeco/pubchempy_integration/water.molpro/run/water_3.molpro/water_3.log ***


 Geometry optimization using default procedure for command HF-SCF

 Geometry written to block  1 of record 700

 PQS Optimization using delocalized internal coordinates

 Point group c2v. Number of degrees of freedom:    2

 ITER.   ENERGY(OLD)    ENERGY(NEW)      DE          GRADMAX     GRADNORM    GRADRMS     STEPMAX     STEPLEN     STEPRMS   CPU-time
   1   -76.04538055   -76.04698395    -0.00160340  0.03415314  0.04174148  0.02951569  0.06721440  0.07792214  0.05509927      0.09
   2   -76.04698395   -76.04701178    -0.00002783  0.00378932  0.00379206  0.00268139  0.01591370  0.01848263  0.01306919      0.17
   3   -76.04701178   -76.04701203    -0.00000025  0.00035019  0.00035103  0.00024821  0.00135665  0.00159307  0.00112647      0.26
   4   -76.04701203   -76.04701203    -0.00000000  0.00000330  0.00000330  0.00000234  0.00001198  0.00001350  0.00000955      0.34

 END OF GEOMETRY OPTIMIZATION.

 Geometry written to block  1 of record 700

 Recomputing wavefunction for reoriented structure

 Current geometry (xyz format, in Angstrom)

    3
 HF-SCF000/6-311G(D,P)  ENERGY=-76.04701203
 O          0.0000000000       -0.0710997252       -0.0686202591
 H          0.0000000000        0.2026878816        0.8316428313
 H          0.0000000000        0.7235942121       -0.5725000380

 **********************************************************************************************************************************


 **********************************************************************************************************************************
 DATASETS  * FILE   NREC   LENGTH (MB)   RECORD NAMES
              1      19       28.95       500      610      700      900      950      970     1000      129      960     1100   
                                          VAR    BASINP    GEOM    SYMINP    ZMAT    AOBASIS   BASIS     P2S    ABASIS      S 
                                         1400     1410     1200     1210     1080     1600     1650     1300     1700   
                                           T        V       H0       H01     AOSYM     SMH    MOLCAS    ERIS     OPER   

              2       4        0.42       700     1000      520     2100   
                                         GEOM     BASIS   MCVARS     RHF  

 PROGRAMS   *        TOTAL      OPTG    HF-SCF       INT
 CPU TIMES  *         0.61      0.39      0.02      0.10
 REAL TIME  *         0.82 SEC
 DISK USED  *        33.91 MB
 **********************************************************************************************************************************


 PROGRAM * HESSIAN
