
                                 *****************
                                 * O   R   C   A *
                                 *****************

                                            #,                                       
                                            ###                                      
                                            ####                                     
                                            #####                                    
                                            ######                                   
                                           ########,                                 
                                     ,,################,,,,,                         
                               ,,#################################,,                 
                          ,,##########################################,,             
                       ,#########################################, ''#####,          
                    ,#############################################,,   '####,        
                  ,##################################################,,,,####,       
                ,###########''''           ''''###############################       
              ,#####''   ,,,,##########,,,,          '''####'''          '####       
            ,##' ,,,,###########################,,,                        '##       
           ' ,,###''''                  '''############,,,                           
         ,,##''                                '''############,,,,        ,,,,,,###''
      ,#''                                            '''#######################'''  
     '                                                          ''''####''''         
             ,#######,   #######,   ,#######,      ##                                
            ,#'     '#,  ##    ##  ,#'     '#,    #''#        ,####,   ,####,        
            ##       ##  ##   ,#'  ##            #'  '#       #'       #'  '#        
            ##       ##  #######   ##           ,######,      #####,   #    #        
            '#,     ,#'  ##    ##  '#,     ,#' ,#      #,     #,   #   #,  ,#        
             '#######'   ##     ##  '#######'  #'      '#     '####' # '####'        



                #########################################################
                #                        -***-                          #
                #          Department of theory and spectroscopy        #
                #                                                       #
                #                      Frank Neese                      #
                #                                                       #
                #     Directorship, Architecture, Infrastructure        #
                #                    SHARK, DRIVERS                     #
                #        Core code/Algorithms in most modules           #
                #                                                       #
                #        Max Planck Institute fuer Kohlenforschung      #
                #                Kaiser Wilhelm Platz 1                 #
                #                 D-45470 Muelheim/Ruhr                 #
                #                      Germany                          #
                #                                                       #
                #                  All rights reserved                  #
                #                        -***-                          #
                #########################################################


                         Program Version 6.0.0  -   RELEASE  -


 With contributions from (in alphabetic order):
   Daniel Aravena         : Magnetic Suceptibility
   Michael Atanasov       : Ab Initio Ligand Field Theory (pilot matlab implementation)
   Alexander A. Auer      : GIAO ZORA, VPT2 properties, NMR spectrum
   Ute Becker             : All parallelization in ORCA, NUMFREQ, NUMCALC
   Giovanni Bistoni       : ED, misc. LED, open-shell LED, HFLD
   Martin Brehm           : Molecular dynamics
   Dmytro Bykov           : pre 5.0 version of the SCF Hessian
   Marcos Casanova-Páez   : Triplet and SCS-CIS(D). UHF-(DLPNO)-IP/EA/STEOM-CCSD. UHF-CVS-IP/STEOM-CCSD
   Vijay G. Chilkuri      : MRCI spin determinant printing, contributions to CSF-ICE
   Pauline Colinet        : FMM embedding
   Dipayan Datta          : RHF DLPNO-CCSD density
   Achintya Kumar Dutta   : EOM-CC, STEOM-CC
   Nicolas Foglia         : Exact transition moments, OPA infrastructure, MCD improvements
   Dmitry Ganyushin       : Spin-Orbit,Spin-Spin,Magnetic field MRCI
   Miquel Garcia          : C-PCM and meta-GGA Hessian, CCSD/C-PCM, Gaussian charge scheme
   Tiago L. C. Gouveia    : GS-ROHF, GS-ROCIS
   Yang Guo               : DLPNO-NEVPT2, F12-NEVPT2, CIM, IAO-localization
   Andreas Hansen         : Spin unrestricted coupled pair/coupled cluster methods
   Ingolf Harden          : AUTO-CI MPn and infrastructure 
   Benjamin Helmich-Paris : MC-RPA, TRAH-(SCF,CASSCF), AVAS, COSX integrals, SCF dyn. polar.
   Lee Huntington         : MR-EOM, pCC
   Robert Izsak           : Overlap fitted RIJCOSX, COSX-SCS-MP3, EOM
   Riya Kayal             : Wick's Theorem for AUTO-CI, AUTO-CI UHF-CCSDT
   Emily Kempfer          : AUTO-CI, RHF CISDT and CCSDT
   Christian Kollmar      : KDIIS, OOCD, Brueckner-CCSD(T), CCSD density, CASPT2, CASPT2-K, improved NEVPT2
   Axel Koslowski         : Symmetry handling
   Simone Kossmann        : Meta GGA functionals, TD-DFT gradient, OOMP2, (MP2 Hessian; deprecated post 5.0)
   Lucas Lang             : DCDCAS
   Marvin Lechner         : AUTO-CI (C++ implementation), FIC-MRCC
   Spencer Leger          : CASSCF response
   Dagmar Lenk            : GEPOL surface, SMD, ORCA-2-JSON
   Dimitrios Liakos       : Extrapolation schemes; Compound Job, initial MDCI parallelization
   Dimitrios Manganas     : Further ROCIS development; embedding schemes. LFT, Crystal Embedding
   Dimitrios Pantazis     : SARC Basis sets
   Anastasios Papadopoulos: AUTO-CI, single reference methods and gradients
   Taras Petrenko         : pre 6.0 DFT Hessian and TD-DFT gradient, (ASA, deprecated), ECA, 1-Electron XAS/XES, NRVS
   Peter Pinski           : DLPNO-MP2, DLPNO-MP2 Gradient
   Christoph Reimann      : Effective Core Potentials
   Marius Retegan         : Local ZFS, SOC
   Christoph Riplinger    : Optimizer, TS searches, QM/MM, DLPNO-CCSD(T), (RO)-DLPNO pert. Triples
   Michael Roemelt        : Original ROCIS implementation
   Masaaki Saitow         : Open-shell DLPNO-CCSD energy and density
   Barbara Sandhoefer     : DKH picture change effects
   Kantharuban Sivalingam : CASSCF convergence/infrastructure, NEVPT2 and variants, FIC-MRCI
   Bernardo de Souza      : ESD, SOC TD-DFT
   Georgi Stoychev        : AutoAux, RI-MP2 NMR, DLPNO-MP2 response, X2C
   Van Anh Tran           : RI-MP2 g-tensors
   Willem Van den Heuvel  : Paramagnetic NMR
   Zikuan Wang            : NOTCH, Electric field optimization 
   Frank Wennmohs         : Technical directorship and infrastructure
   Hang Xu                : AUTO-CI-Response properties 


 We gratefully acknowledge several colleagues who have allowed us to
 interface, adapt or use parts of their codes:
   Stefan Grimme, W. Hujo, H. Kruse, P. Pracht,  : VdW corrections, initial TS optimization,
                  C. Bannwarth, S. Ehlert,         DFT functionals, gCP, sTDA/sTD-DF
                  L. Wittmann, M. Mueller
   Ed Valeev, F. Pavosevic, A. Kumar             : LibInt (2-el integral package), F12 methods
   Garnet Chan, S. Sharma, J. Yang, R. Olivares  : DMRG
   Ulf Ekstrom                                   : XCFun DFT Library
   Mihaly Kallay                                 : mrcc  (arbitrary order and MRCC methods)
   Frank Weinhold                                : gennbo (NPA and NBO analysis)
   Simon Mueller                                 : openCOSMO-RS
   Christopher J. Cramer and Donald G. Truhlar   : smd solvation model
   Lars Goerigk                                  : TD-DFT with DH, B97 family of functionals
   V. Asgeirsson, H. Jonsson                     : NEB implementation
   FAccTs GmbH                                   : IRC, NEB, NEB-TS, DLPNO-Multilevel, CI-OPT
                                                   MM, QMMM, 2- and 3-layer-ONIOM, Crystal-QMMM,
                                                   LR-CPCM, SF, NACMEs, symmetry and pop. for TD-DFT,
                                                   nearIR, NL-DFT gradient (VV10), updates on ESD,
                                                   ML-optimized integration grids, MBIS, APM,
                                                   GOAT, DOCKER, SOLVATOR, interface openCOSMO-RS
   S Lehtola, MJT Oliveira, MAL Marques          : LibXC Library
   Liviu Ungur et al                             : ANISO software


 Your calculation uses the libint2 library for the computation of 2-el integrals
 For citations please refer to: http://libint.valeyev.net

 Your ORCA version has been built with support for libXC version: 6.2.2
 For citations please refer to: https://libxc.gitlab.io

 This ORCA versions uses:
   CBLAS   interface :  Fast vector & matrix operations
   LAPACKE interface :  Fast linear algebra routines
   SCALAPACK package :  Parallel linear algebra routines
   Shared memory     :  Shared parallel matrices
   BLAS/LAPACK       :  OpenBLAS 0.3.27  USE64BITINT DYNAMIC_ARCH NO_AFFINITY Haswell SINGLE_THREADED
        Core in use  :  Haswell
   Copyright (c) 2011-2014, The OpenBLAS Project


================================================================================

----- Orbital basis set information -----
Your calculation utilizes the basis: 6-311G(d,p)
   H, Li - Ne  : R. Krishnan, J. S. Binkley, R. Seeger and J. A. Pople, J. Chem. Phys. 72, 650 (1980).
   Na - Ar     : A. D. McLean and G. S. Chandler J. Chem. Phys. 72, 5639, (1980).
   K  - Ca     : J.-P. Blaudeau, M. P. McGrath, L. A. Curtiss and L. Radom, J. Chem. Phys. 107, 5016 (1997).
   Ga - Kr     : L. A. Curtiss, M. P. McGrath, J.-P. Blandeau, N. E. Davis, R. C. Binning and L. Radom, J. Chem. Phys. 103, 6104 (1995).
   Pol./Diff.
   H, Li - Cl  : T. Clark, J. Chandrasekhar and P. v. R. Schleyer, J. Comp. Chem. 4, 294 (1983).
   H - Ne      : M. J. Frisch, J. A. Pople and J. S. Binkley, J. Chem. Phys. 80, 3265 (1984).

================================================================================
                                        WARNINGS
                       Please study these warnings very carefully!
================================================================================


WARNING: Geometry Optimization
  ===> : Switching off AutoStart
         For restart on a previous wavefunction, please use MOREAD

================================================================================
                                       INPUT FILE
================================================================================
NAME = ethanol.inp
|  1> ! HF 6-311g(d,p) opt freq
|  2> 
|  3> * xyz 0 1
|  4>   H      1.8853     -0.0401      1.0854
|  5>   C      1.2699     -0.0477      0.1772
|  6>   H      1.5840      0.8007     -0.4449
|  7>   H      1.5089     -0.9636     -0.3791
|  8>   C     -0.2033      0.0282      0.5345
|  9>   H     -0.4993     -0.8287      1.1714
| 10>   H     -0.4235      0.9513      1.1064
| 11>   O     -0.9394      0.0157     -0.6674
| 12>   H     -1.8540      0.0626     -0.4252
| 13> *
| 14> 
| 15>                          ****END OF INPUT****
================================================================================

                       *****************************
                       * Geometry Optimization Run *
                       *****************************

Geometry optimization settings:
Update method            Update   .... BFGS
Choice of coordinates    CoordSys .... (2022) Redundant Internals
Initial Hessian          InHess   .... Almloef's Model
Max. no of cycles        MaxIter  .... 50

Convergence Tolerances:
Energy Change            TolE     ....  5.0000e-06 Eh
Max. Gradient            TolMAXG  ....  3.0000e-04 Eh/bohr
RMS Gradient             TolRMSG  ....  1.0000e-04 Eh/bohr
Max. Displacement        TolMAXD  ....  4.0000e-03 bohr
RMS Displacement         TolRMSD  ....  2.0000e-03 bohr
Strict Convergence                .... False

------------------------------------------------------------------------------
                        ORCA OPTIMIZATION COORDINATE SETUP
------------------------------------------------------------------------------

The optimization will be done in redundant internal coordinates (2022)
Making redundant internal coordinates   ...  (2022 redundants) done
Evaluating the initial hessian          ...  (Almloef) done
Evaluating the coordinates              ...  done
Calculating the B-matrix                .... done
Calculating the G-matrix                .... done
Diagonalizing the G-matrix              .... done
The first mode is                       ....    9
The number of degrees of freedom        ....   21

    -----------------------------------------------------------------
                    Redundant Internal Coordinates


    -----------------------------------------------------------------
         Definition                    Initial Value    Approx d2E/dq
    -----------------------------------------------------------------
      1. B(C   1,H   0)                  1.0971         0.350844   
      2. B(H   2,C   1)                  1.0979         0.349761   
      3. B(H   3,C   1)                  1.0979         0.349753   
      4. B(C   4,C   1)                  1.5178         0.390686   
      5. B(H   5,C   4)                  1.1079         0.337130   
      6. B(H   6,C   4)                  1.1080         0.337054   
      7. B(O   7,C   4)                  1.4095         0.520998   
      8. B(H   8,O   7)                  0.9473         0.544815   
      9. A(H   2,C   1,C   4)          111.8648         0.325154   
     10. A(H   0,C   1,C   4)          110.4404         0.325320   
     11. A(H   3,C   1,C   4)          111.8559         0.325153   
     12. A(H   2,C   1,H   3)          107.1722         0.288194   
     13. A(H   0,C   1,H   2)          107.6516         0.288335   
     14. A(H   0,C   1,H   3)          107.6448         0.288334   
     15. A(C   1,C   4,H   5)          110.8521         0.323196   
     16. A(H   6,C   4,O   7)          110.1051         0.336893   
     17. A(H   5,C   4,O   7)          110.1092         0.336905   
     18. A(C   1,C   4,O   7)          107.8019         0.385359   
     19. A(H   5,C   4,H   6)          107.1301         0.284896   
     20. A(C   1,C   4,H   6)          110.8585         0.323184   
     21. A(C   4,O   7,H   8)          106.6050         0.362134   
     22. D(H   5,C   4,C   1,H   2)   -179.3432         0.012133   
     23. D(H   6,C   4,C   1,H   0)     59.3850         0.012133   
     24. D(H   5,C   4,C   1,H   0)    -59.4593         0.012133   
     25. D(H   6,C   4,C   1,H   2)    -60.4989         0.012133   
     26. D(H   6,C   4,C   1,H   3)    179.2544         0.012133   
     27. D(H   5,C   4,C   1,H   3)     60.4102         0.012133   
     28. D(H   8,O   7,C   4,C   1)    179.9392         0.021524   
     29. D(H   8,O   7,C   4,H   6)    -59.0117         0.021524   
     30. D(H   8,O   7,C   4,H   5)     58.8954         0.021524   
    -----------------------------------------------------------------

Number of atoms                         .... 9
Number of degrees of freedom            .... 30


         *************************************************************
         *                GEOMETRY OPTIMIZATION CYCLE   1            *
         *************************************************************
---------------------------------
CARTESIAN COORDINATES (ANGSTROEM)
---------------------------------
  H      1.885300   -0.040100    1.085400
  C      1.269900   -0.047700    0.177200
  H      1.584000    0.800700   -0.444900
  H      1.508900   -0.963600   -0.379100
  C     -0.203300    0.028200    0.534500
  H     -0.499300   -0.828700    1.171400
  H     -0.423500    0.951300    1.106400
  O     -0.939400    0.015700   -0.667400
  H     -1.854000    0.062600   -0.425200

----------------------------
CARTESIAN COORDINATES (A.U.)
----------------------------
  NO LB      ZA    FRAG     MASS         X           Y           Z
   0 H     1.0000    0     1.008    3.562701   -0.075778    2.051109
   1 C     6.0000    0    12.011    2.399763   -0.090140    0.334859
   2 H     1.0000    0     1.008    2.993326    1.513104   -0.840739
   3 H     1.0000    0     1.008    2.851408   -1.820940   -0.716395
   4 C     6.0000    0    12.011   -0.384181    0.053290    1.010059
   5 H     1.0000    0     1.008   -0.943540   -1.566016    2.213625
   6 H     1.0000    0     1.008   -0.800299    1.797696    2.090793
   7 O     8.0000    0    15.999   -1.775209    0.029669   -1.261203
   8 H     1.0000    0     1.008   -3.503552    0.118297   -0.803512

--------------------------------
INTERNAL COORDINATES (ANGSTROEM)
--------------------------------
 H      0   0   0     0.000000000000     0.00000000     0.00000000
 C      1   0   0     1.097088036577     0.00000000     0.00000000
 H      2   1   0     1.097929770067   107.65160516     0.00000000
 H      2   1   3     1.097936018172   107.64479568   115.23583039
 C      2   1   3     1.517808400293   110.44035266   237.61023559
 H      5   2   1     1.107941884757   110.85211119   300.54073422
 H      5   2   1     1.108003276168   110.85851949    59.38497801
 O      5   2   1     1.409454883989   107.80186484   179.96221314
 H      8   5   2     0.947287501237   106.60498116   179.93918529

---------------------------
INTERNAL COORDINATES (A.U.)
---------------------------
 H      0   0   0     0.000000000000     0.00000000     0.00000000
 C      1   0   0     2.073195933932     0.00000000     0.00000000
 H      2   1   0     2.074786579706   107.65160516     0.00000000
 H      2   1   3     2.074798386914   107.64479568   115.23583039
 C      2   1   3     2.868242200319   110.44035266   237.61023559
 H      5   2   1     2.093706734492   110.85211119   300.54073422
 H      5   2   1     2.093822747446   110.85851949    59.38497801
 O      5   2   1     2.663483728857   107.80186484   179.96221314
 H      8   5   2     1.790113947425   106.60498116   179.93918529

---------------------
BASIS SET INFORMATION
---------------------
There are 3 groups of distinct atoms

 Group   1 Type H   : 5s1p contracted to 3s1p pattern {311/1}
 Group   2 Type C   : 11s5p1d contracted to 4s3p1d pattern {6311/311/1}
 Group   3 Type O   : 11s5p1d contracted to 4s3p1d pattern {6311/311/1}

Atom   0H    basis set group =>   1
Atom   1C    basis set group =>   2
Atom   2H    basis set group =>   1
Atom   3H    basis set group =>   1
Atom   4C    basis set group =>   2
Atom   5H    basis set group =>   1
Atom   6H    basis set group =>   1
Atom   7O    basis set group =>   3
Atom   8H    basis set group =>   1
------------------------------------------------------------------------------
                             ORCA STARTUP CALCULATIONS
------------------------------------------------------------------------------
------------------------------------------------------------------------------
                   ___                                                        
                  /   \      - P O W E R E D   B Y -                         
                 /     \                                                     
                 |  |  |   _    _      __       _____    __    __             
                 |  |  |  | |  | |    /  \     |  _  \  |  |  /  |          
                  \  \/   | |  | |   /    \    | | | |  |  | /  /          
                 / \  \   | |__| |  /  /\  \   | |_| |  |  |/  /          
                |  |  |   |  __  | /  /__\  \  |    /   |      \           
                |  |  |   | |  | | |   __   |  |    \   |  |\   \          
                \     /   | |  | | |  |  |  |  | |\  \  |  | \   \       
                 \___/    |_|  |_| |__|  |__|  |_| \__\ |__|  \__/        
                                                                              
                      - O R C A' S   B I G   F R I E N D -                    
                                      &                                       
                       - I N T E G R A L  F E E D E R -                       
                                                                              
 v1 FN, 2020, v2 2021, v3 2022-2024                                           
------------------------------------------------------------------------------


----------------------
SHARK INTEGRAL PACKAGE
----------------------

Number of atoms                             ...      9
Number of basis functions                   ...     90
Number of shells                            ...     48
Maximum angular momentum                    ...      2
Integral batch strategy                     ... SHARK/LIBINT Hybrid
RI-J (if used) integral strategy            ... SPLIT-RIJ (Revised 2003 algorithm where possible)
Printlevel                                  ...      1
Contraction scheme used                     ... SEGMENTED contraction
Prescreening option                         ... SCHWARTZ
   Thresh                                   ... 2.500e-11
   Tcut                                     ... 2.500e-12
   Tpresel                                  ... 2.500e-12 
Coulomb Range Separation                    ... NOT USED
Exchange Range Separation                   ... NOT USED
Multipole approximations                    ... NOT USED
Finite Nucleus Model                        ... NOT USED
CABS basis                                  ... NOT available
Auxiliary Coulomb fitting basis             ... NOT available
Auxiliary J/K fitting basis                 ... NOT available
Auxiliary Correlation fitting basis         ... NOT available
Auxiliary 'external' fitting basis          ... NOT available

Checking pre-screening integrals            ... done (  0.0 sec) Dimension = 48
Check shell pair data                       ... done (  0.0 sec)
Shell pair information
Shell pair cut-off parameter TPreSel        ...   2.5e-12
Total number of shell pairs                 ...      1176
Shell pairs after pre-screening             ...      1166
Total number of primitive shell pairs       ...      3909
Primitive shell pairs kept                  ...      3204
          la=0 lb=0:    456 shell pairs
          la=1 lb=0:    449 shell pairs
          la=1 lb=1:    120 shell pairs
          la=2 lb=0:     90 shell pairs
          la=2 lb=1:     45 shell pairs
          la=2 lb=2:      6 shell pairs

Calculating one electron integrals          ... done (  0.0 sec)
Calculating Nuclear repulsion               ... done (  0.0 sec) ENN=     81.973203373250 Eh

Diagonalization of the overlap matrix:
Smallest eigenvalue                        ... 3.054e-03
Time for diagonalization                   ...    0.001 sec
Threshold for overlap eigenvalues          ... 1.000e-07
Number of eigenvalues below threshold      ... 0
Time for construction of square roots      ...    0.000 sec
Total time needed                          ...    0.001 sec

-------------------
DFT GRID GENERATION
-------------------

General Integration Accuracy     IntAcc      ... 4.388
Radial Grid Type                 RadialGrid  ... OptM3 with GC (2021)
Angular Grid (max. ang.)         AngularGrid ... 4 (Lebedev-302)
Angular grid pruning method      GridPruning ... 4 (adaptive)
Weight generation scheme         WeightScheme... mBecke (2022)
Basis function cutoff            BFCut       ... 1.0000e-11
Integration weight cutoff        WCut        ... 1.0000e-14
Partially contracted basis set               ... off
Rotationally invariant grid construction     ... off
Angular grids for H and He will be reduced by one unit

Total number of grid points                  ...    37723
Total number of batches                      ...      593
Average number of points per batch           ...       63
Average number of grid points per atom       ...     4191
Initializing property integral containers    ... done (  0.0 sec)

SHARK setup successfully completed in   0.3 seconds

Maximum memory used throughout the entire STARTUP-calculation: 14.5 MB
-------------------------------------------------------------------------------
                                 ORCA GUESS
                   Start orbitals & Density for SCF / CASSCF
-------------------------------------------------------------------------------

------------
SCF SETTINGS
------------
Hamiltonian:
 Ab initio Hamiltonian  Method          .... Hartree-Fock(GTOs)


General Settings:
 Integral files         IntName         .... ethanol
 Hartree-Fock type      HFTyp           .... RHF
 Total Charge           Charge          ....    0
 Multiplicity           Mult            ....    1
 Number of Electrons    NEL             ....   26
 Basis Dimension        Dim             ....   90
 Nuclear Repulsion      ENuc            ....     81.9732033733 Eh

Convergence Acceleration:
 AO-DIIS                CNVDIIS         .... on
   Start iteration      DIISMaxIt       ....    12
   Startup error        DIISStart       ....  0.200000
   # of expansion vecs  DIISMaxEq       ....     5
   Bias factor          DIISBfac        ....   1.050
   Max. coefficient     DIISMaxC        ....  10.000
 MO-DIIS                CNVKDIIS        .... off
 Trust-Rad. Augm. Hess. CNVTRAH         .... auto
   Auto Start mean grad. ratio tolernc. ....  1.125000
   Auto Start start iteration           ....    50
   Auto Start num. interpolation iter.  ....    10
   Max. Number of Micro iterations      ....    24
   Max. Number of Macro iterations      .... Maxiter - #DIIS iter
   Number of Davidson start vectors     ....     2
   Converg. threshold    (grad. norm)   ....   1.000e-05
   Grad. Scal. Fac. for Micro threshold ....   0.100
   Minimum threshold for Micro iter.    ....   1.000e-02
   NR start threshold (gradient norm)   ....   1.000e-04
   Initial trust radius                 ....   0.400
   Minimum AH scaling param. (alpha)    ....   1.000
   Maximum AH scaling param. (alpha)    .... 1000.000
   Quad. conv. algorithm                .... NR
   White noise on init. David. guess    .... on
   Maximum white noise                  ....   0.010
   Pseudo random numbers                .... off
   Inactive MOs                         .... canonical
   Orbital update algorithm             .... Taylor
   Preconditioner                       .... Diag
   Full preconditioner red. dimension   ....   250
 SOSCF                  CNVSOSCF        .... on
   Start iteration      SOSCFMaxIt      ....   150
   Startup grad/error   SOSCFStart      ....  0.003300
   Hessian update       SOSCFHessUp     .... L-BFGS
 Level Shifting         CNVShift        .... on
   Level shift para.    LevelShift      ....    0.2500
   Turn off err/grad.   ShiftErr        ....    0.0010
 Zerner damping         CNVZerner       .... off
 Static damping         CNVDamp         .... on
   Fraction old density DampFac         ....    0.7000
   Max. Damping (<1)    DampMax         ....    0.9800
   Min. Damping (>=0)   DampMin         ....    0.0000
   Turn off err/grad.   DampErr         ....    0.1000

SCF Procedure:
 Maximum # iterations   MaxIter         ....   125
 SCF integral mode      SCFMode         .... Direct
   Integral package                     .... SHARK and LIBINT hybrid scheme
 Reset frequency        DirectResetFreq ....    20
 Integral Threshold     Thresh          ....  2.500e-11 Eh
 Primitive CutOff       TCut            ....  2.500e-12 Eh

Convergence Tolerance:
 Convergence Check Mode ConvCheckMode   .... Total+1el-Energy
 Convergence forced     ConvForced      .... 0
 Energy Change          TolE            ....  1.000e-08 Eh
 1-El. energy change                    ....  1.000e-05 Eh
 Orbital Gradient       TolG            ....  1.000e-05
 Orbital Rotation angle TolX            ....  1.000e-05
 DIIS Error             TolErr          ....  5.000e-07

------------------------------
INITIAL GUESS: MODEL POTENTIAL
------------------------------
Loading Hartree-Fock densities                     ... done
Calculating cut-offs                               ... done
Initializing the effective Hamiltonian             ... done
Setting up the integral package (SHARK)            ... done
Starting the Coulomb interaction                   ... done (   0.0 sec)
Making the grid                                    ... done (   0.1 sec)
Mapping shells                                     ... done
Starting the XC term evaluation                    ... done (   0.0 sec)
Transforming the Hamiltonian                       ... done (   0.0 sec)
Diagonalizing the Hamiltonian                      ... done (   0.0 sec)
Back transforming the eigenvectors                 ... done (   0.0 sec)
Now organizing SCF variables                       ... done
                      ------------------
                      INITIAL GUESS DONE (   0.1 sec)
                      ------------------
             **** ENERGY FILE WAS UPDATED (ethanol.en.tmp) ****
Finished Guess after   0.1 sec
Maximum memory used throughout the entire GUESS-calculation: 6.8 MB

-------------------------------------------------------------------------------------------
                                      ORCA LEAN-SCF
                              memory conserving SCF solver
-------------------------------------------------------------------------------------------

----------------------------------------D-I-I-S--------------------------------------------
Iteration    Energy (Eh)           Delta-E    RMSDP     MaxDP     DIISErr   Damp  Time(sec)
-------------------------------------------------------------------------------------------
               ***  Starting incremental Fock matrix formation  ***
    1    -153.9336816716239014     0.00e+00  2.46e-03  5.36e-02  3.29e-01  0.700   0.4
    2    -154.0029200465063468    -6.92e-02  1.79e-03  3.70e-02  2.01e-01  0.700   0.4
                               ***Turning on AO-DIIS***
    3    -154.0432459488081349    -4.03e-02  8.41e-04  1.51e-02  1.16e-01  0.700   0.4
    4    -154.0684564259153717    -2.52e-02  5.71e-04  7.92e-03  8.30e-02  0.700   0.4
    5    -154.0854373278893945    -1.70e-02  1.42e-03  1.59e-02  6.06e-02  0.000   0.4
    6    -154.1242951285111644    -3.89e-02  1.81e-04  1.93e-03  4.44e-03  0.000   0.4
                              *** Initializing SOSCF ***
---------------------------------------S-O-S-C-F--------------------------------------
Iteration    Energy (Eh)           Delta-E    RMSDP     MaxDP     MaxGrad    Time(sec)
--------------------------------------------------------------------------------------
    7    -154.1243696146513571    -7.45e-05  9.77e-05  1.16e-03  1.09e-03     0.3
               *** Restarting incremental Fock matrix formation ***
    8    -154.1243828879794364    -1.33e-05  4.05e-05  4.54e-04  2.25e-04     0.4
    9    -154.1243845495245068    -1.66e-06  2.60e-05  3.19e-04  1.41e-04     0.3
   10    -154.1243848483967440    -2.99e-07  4.47e-06  5.11e-05  3.12e-05     0.4
   11    -154.1243848645675030    -1.62e-08  6.43e-07  8.27e-06  4.15e-06     0.3
   12    -154.1243848645571006     1.04e-11  1.87e-07  3.28e-06  1.86e-06     0.3
                 **** Energy Check signals convergence ****

               *****************************************************
               *                     SUCCESS                       *
               *           SCF CONVERGED AFTER  12 CYCLES          *
               *****************************************************

             **** ENERGY FILE WAS UPDATED (ethanol.en.tmp) ****

----------------
TOTAL SCF ENERGY
----------------

Total Energy       :       -154.12438486455710 Eh           -4193.93773 eV

Components:
Nuclear Repulsion  :         81.97320337325048 Eh            2230.60427 eV
Electronic Energy  :       -236.09758823780757 Eh           -6424.54199 eV
One Electron Energy:       -371.95100077971119 Eh          -10121.30129 eV
Two Electron Energy:        135.85341254190362 Eh            3696.75929 eV

Virial components:
Potential Energy   :       -308.14483383030711 Eh           -8385.04722 eV
Kinetic Energy     :        154.02044896575001 Eh            4191.10949 eV
Virial Ratio       :          2.00067481882766

---------------
SCF CONVERGENCE
---------------

  Last Energy change         ...   -1.0402e-11  Tolerance :   1.0000e-08
  Last MAX-Density change    ...    3.2843e-06  Tolerance :   1.0000e-07
  Last RMS-Density change    ...    1.8679e-07  Tolerance :   5.0000e-09
  Last DIIS Error            ...    1.0881e-03  Tolerance :   5.0000e-07
  Last Orbital Gradient      ...    1.8593e-06  Tolerance :   1.0000e-05
  Last Orbital Rotation      ...    1.8854e-06  Tolerance :   1.0000e-05


----------------
ORBITAL ENERGIES
----------------

  NO   OCC          E(Eh)            E(eV) 
   0   2.0000     -20.542620      -558.9931 
   1   2.0000     -11.276290      -306.8435 
   2   2.0000     -11.214152      -305.1526 
   3   2.0000      -1.361668       -37.0529 
   4   2.0000      -1.007306       -27.4102 
   5   2.0000      -0.832194       -22.6452 
   6   2.0000      -0.700180       -19.0529 
   7   2.0000      -0.641012       -17.4428 
   8   2.0000      -0.572242       -15.5715 
   9   2.0000      -0.527939       -14.3659 
  10   2.0000      -0.521784       -14.1985 
  11   2.0000      -0.488522       -13.2934 
  12   2.0000      -0.436179       -11.8690 
  13   0.0000       0.152922         4.1612 
  14   0.0000       0.182578         4.9682 
  15   0.0000       0.207359         5.6425 
  16   0.0000       0.210287         5.7222 
  17   0.0000       0.236442         6.4339 
  18   0.0000       0.259925         7.0729 
  19   0.0000       0.364659         9.9229 
  20   0.0000       0.380418        10.3517 
  21   0.0000       0.457046        12.4369 
  22   0.0000       0.461371        12.5546 
  23   0.0000       0.526716        14.3327 
*Only the first 10 virtual orbitals were printed.

                    ********************************
                    * MULLIKEN POPULATION ANALYSIS *
                    ********************************

-----------------------
MULLIKEN ATOMIC CHARGES
-----------------------
   0 H :    0.080752
   1 C :   -0.262266
   2 H :    0.098392
   3 H :    0.098347
   4 C :    0.082457
   5 H :    0.064199
   6 H :    0.064207
   7 O :   -0.467735
   8 H :    0.241647
Sum of atomic charges:   -0.0000000

--------------------------------
MULLIKEN REDUCED ORBITAL CHARGES
--------------------------------
  0 H s       :     0.894920  s :     0.894920
      pz      :     0.012000  p :     0.024328
      px      :     0.008069
      py      :     0.004258

  1 C s       :     3.179027  s :     3.179027
      pz      :     1.031020  p :     3.026037
      px      :     0.928454
      py      :     1.066563
      dz2     :     0.006588  d :     0.057202
      dxz     :     0.012978
      dyz     :     0.014234
      dx2y2   :     0.016143
      dxy     :     0.007258

  2 H s       :     0.877388  s :     0.877388
      pz      :     0.008191  p :     0.024219
      px      :     0.004777
      py      :     0.011251

  3 H s       :     0.877435  s :     0.877435
      pz      :     0.007400  p :     0.024219
      px      :     0.004321
      py      :     0.012498

  4 C s       :     3.095748  s :     3.095748
      pz      :     0.782720  p :     2.706875
      px      :     0.907368
      py      :     1.016788
      dz2     :     0.020574  d :     0.114920
      dxz     :     0.030148
      dyz     :     0.029635
      dx2y2   :     0.022767
      dxy     :     0.011795

  5 H s       :     0.913597  s :     0.913597
      pz      :     0.007024  p :     0.022205
      px      :     0.003598
      py      :     0.011583

  6 H s       :     0.913591  s :     0.913591
      pz      :     0.006137  p :     0.022201
      px      :     0.003207
      py      :     0.012858

  7 O s       :     3.819655  s :     3.819655
      pz      :     1.484387  p :     4.634189
      px      :     1.237727
      py      :     1.912075
      dz2     :     0.004495  d :     0.013891
      dxz     :     0.004529
      dyz     :     0.001499
      dx2y2   :     0.002996
      dxy     :     0.000372

  8 H s       :     0.688490  s :     0.688490
      pz      :     0.015815  p :     0.069864
      px      :     0.032125
      py      :     0.021924



                     *******************************
                     * LOEWDIN POPULATION ANALYSIS *
                     *******************************

----------------------
LOEWDIN ATOMIC CHARGES
----------------------
   0 H :   -0.000394
   1 C :    0.006592
   2 H :    0.003250
   3 H :    0.003236
   4 C :    0.077784
   5 H :   -0.021504
   6 H :   -0.021504
   7 O :   -0.064324
   8 H :    0.016864

-------------------------------
LOEWDIN REDUCED ORBITAL CHARGES
-------------------------------
  0 H s       :     0.934179  s :     0.934179
      pz      :     0.031170  p :     0.066214
      px      :     0.021741
      py      :     0.013304

  1 C s       :     2.772201  s :     2.772201
      pz      :     1.042565  p :     3.114899
      px      :     1.017285
      py      :     1.055049
      dz2     :     0.012017  d :     0.106308
      dxz     :     0.025697
      dyz     :     0.024252
      dx2y2   :     0.030388
      dxy     :     0.013954

  2 H s       :     0.930187  s :     0.930187
      pz      :     0.022278  p :     0.066563
      px      :     0.014626
      py      :     0.029659

  3 H s       :     0.930203  s :     0.930203
      pz      :     0.020409  p :     0.066561
      px      :     0.013585
      py      :     0.032568

  4 C s       :     2.778083  s :     2.778083
      pz      :     0.891290  p :     2.916775
      px      :     0.986407
      py      :     1.039077
      dz2     :     0.043213  d :     0.227358
      dxz     :     0.055760
      dyz     :     0.065206
      dx2y2   :     0.042327
      dxy     :     0.020851

  5 H s       :     0.958479  s :     0.958479
      pz      :     0.019454  p :     0.063025
      px      :     0.013081
      py      :     0.030491

  6 H s       :     0.958489  s :     0.958489
      pz      :     0.017406  p :     0.063015
      px      :     0.012270
      py      :     0.033339

  7 O s       :     3.376890  s :     3.376890
      pz      :     1.534721  p :     4.667919
      px      :     1.270021
      py      :     1.863177
      dz2     :     0.005968  d :     0.019516
      dxz     :     0.006556
      dyz     :     0.001728
      dx2y2   :     0.004868
      dxy     :     0.000396

  8 H s       :     0.778439  s :     0.778439
      pz      :     0.047528  p :     0.204697
      px      :     0.099068
      py      :     0.058102



                      *****************************
                      * MAYER POPULATION ANALYSIS *
                      *****************************

  NA   - Mulliken gross atomic population
  ZA   - Total nuclear charge
  QA   - Mulliken gross atomic charge
  VA   - Mayer's total valence
  BVA  - Mayer's bonded valence
  FA   - Mayer's free valence

  ATOM       NA         ZA         QA         VA         BVA        FA
  0 H      0.9192     1.0000     0.0808     0.9642     0.9642    -0.0000
  1 C      6.2623     6.0000    -0.2623     3.9120     3.9120    -0.0000
  2 H      0.9016     1.0000     0.0984     0.9671     0.9671    -0.0000
  3 H      0.9017     1.0000     0.0983     0.9671     0.9671    -0.0000
  4 C      5.9175     6.0000     0.0825     3.8505     3.8505    -0.0000
  5 H      0.9358     1.0000     0.0642     0.9534     0.9534    -0.0000
  6 H      0.9358     1.0000     0.0642     0.9534     0.9534    -0.0000
  7 O      8.4677     8.0000    -0.4677     1.8839     1.8839    -0.0000
  8 H      0.7584     1.0000     0.2416     0.9795     0.9795    -0.0000

  Mayer bond orders larger than 0.100000
B(  0-H ,  1-C ) :   0.9834 B(  1-C ,  2-H ) :   0.9827 B(  1-C ,  3-H ) :   0.9827 
B(  1-C ,  4-C ) :   0.9995 B(  4-C ,  5-H ) :   0.9738 B(  4-C ,  6-H ) :   0.9738 
B(  4-C ,  7-O ) :   0.9218 B(  7-O ,  8-H ) :   0.9645 

-------
TIMINGS
-------

Total SCF time: 0 days 0 hours 0 min 4 sec 

Total time                  ....       4.175 sec
Sum of individual times     ....       4.165 sec  ( 99.8%)

SCF preparation             ....       0.021 sec  (  0.5%)
Fock matrix formation       ....       4.118 sec  ( 98.6%)
  Startup                   ....       0.001 sec  (  0.0% of F)
  Coulomb+Exchange Fock     ....       4.114 sec  ( 99.9% of F)
Diagonalization             ....       0.000 sec  (  0.0%)
Density matrix formation    ....       0.003 sec  (  0.1%)
Total Energy calculation    ....       0.001 sec  (  0.0%)
Population analysis         ....       0.002 sec  (  0.1%)
Orbital Transformation      ....       0.004 sec  (  0.1%)
Orbital Orthonormalization  ....       0.000 sec  (  0.0%)
DIIS solution               ....       0.013 sec  (  0.3%)
SOSCF solution              ....       0.004 sec  (  0.1%)
Finished LeanSCF after   4.2 sec

Maximum memory used throughout the entire LEANSCF-calculation: 8.8 MB

------------------------------------------------------------------------------
                         ORCA PROPERTY INTEGRAL CALCULATIONS
------------------------------------------------------------------------------

GBWName                                   ... ethanol.gbw
Number of atoms                           ...      9
Number of basis functions                 ...     90
Max core memory                           ...   1024 MB

Dipole integrals                          ... YES
Quadrupole integrals                      ...  NO
Linear momentum integrals                 ...  NO
Angular momentum integrals                ...  NO
Higher moments length integrals           ...  NO
Higher moments velocity integrals         ...  NO
Kinetic energy integrals                  ...  NO
GIAO right hand sides                     ...  NO
GIAO dipole derivative integrals          ...  NO
SOC integrals                             ...  NO
EPR diamagnetic integrals (GIAO)          ...  NO
EPR gauge integrals                       ...  NO
Field gradient integrals                  ...  NO (   0 nuclei)
Spin-dipole/Fermi contact integrals       ...  NO (   0 nuclei)
Contact density integrals                 ...  NO (   0 nuclei)
Nucleus-orbit integrals                   ...  NO (   0 nuclei)
Geometric perturbations                   ...  NO (   9 nuclei)

Choice of electric origin   ... Center of mass
Position of electric origin ... (  0.0000, -0.0000,  0.0001) 
Choice of magnetic origin   ... GIAO
Position of magnetic origin ... (  0.0000,  0.0000,  0.0000) 

Calculating integrals                     ... Electric Dipole (Length)     done (  0.0 sec)

Property integrals calculated in   0.0 sec

Maximum memory used throughout the entire PROPINT-calculation: 5.4 MB

-------------------------   --------------------
FINAL SINGLE POINT ENERGY      -154.124384864557
-------------------------   --------------------

------------------------------------------------------------------------------
                         ORCA SCF GRADIENT CALCULATION
------------------------------------------------------------------------------

Nuc. rep. gradient        (SHARK) ... done (  0.0 sec)
HCore & Overlap gradient  (SHARK) ... done (  0.0 sec)
Two-electron gradient     (SHARK) ... done (  1.5 sec)

------------------
CARTESIAN GRADIENT
------------------

   1   H   :    0.004076037    0.000017318    0.005256774
   2   C   :   -0.011639202    0.000461121   -0.001541277
   3   H   :    0.005872515    0.005429036   -0.005163654
   4   H   :    0.005365339   -0.006285628   -0.004712913
   5   C   :    0.002987470   -0.000283466   -0.003120156
   6   H   :   -0.005446468   -0.008739877    0.006841640
   7   H   :   -0.004676825    0.009673904    0.006187927
   8   O   :    0.009766249   -0.000800265   -0.011250772
   9   H   :   -0.006305114    0.000527856    0.007502431

Difference to translation invariance:
           :   -0.0000000000   -0.0000000000   -0.0000000000

Difference to rotation invariance:
           :    0.0000000302    0.0000006239   -0.0000000201

Norm of the Cartesian gradient     ...    0.0317443572
RMS gradient                       ...    0.0061092044
MAX gradient                       ...    0.0116392021

-------
TIMINGS
-------

Total SCF gradient time     ....        1.497 sec

Densities                   ....       0.000 sec  (  0.0%)
One electron gradient       ....       0.032 sec  (  2.2%)
Two electron gradient       ....       1.464 sec  ( 97.8%)

Maximum memory used throughout the entire SCFGRAD-calculation: 14.6 MB
------------------------------------------------------------------------------
                         ORCA GEOMETRY RELAXATION STEP
------------------------------------------------------------------------------

Reading the OPT-File                    .... done
Getting information on internals        .... done
Copying old internal coords+grads       .... done
Making the new internal coordinates     .... (2022 redundants) done
Validating the new internal coordinates .... (2022 redundants) done
Calculating the B-matrix                .... done
Calculating the G,G- and P matrices     .... done
Transforming gradient to internals      .... done
Projecting the internal gradient        .... done
Number of atoms                         ....   9
Number of internal coordinates          ....  30
Current Energy                          ....  -154.124384865 Eh
Current gradient norm                   ....     0.031744357 Eh/bohr
Maximum allowed component of the step   ....  0.300
Current trust radius                    ....  0.300
Evaluating the initial hessian          ....  (Almloef) done
Projecting the Hessian                  .... done
Forming the augmented Hessian           .... done
Diagonalizing the augmented Hessian     .... done
Last element of RFO vector              ....  0.996677248
Lowest eigenvalues of augmented Hessian:
 -0.002261677  0.012132950  0.021523715  0.108840667  0.129654596
Length of the computed step             ....  0.081723764
The final length of the internal step   ....  0.081723764
Converting the step to Cartesian space:
 Initial RMS(Int)=    0.0149206496
Transforming coordinates:
 Iter   0:  RMS(Cart)=    0.0187839889 RMS(Int)=    0.0149088334
done
Storing new coordinates                 .... done

                                .--------------------.
          ----------------------|Geometry convergence|-------------------------
          Item                value                   Tolerance       Converged
          ---------------------------------------------------------------------
          RMS gradient        0.0051393395            0.0001000000      NO
          MAX gradient        0.0121828970            0.0003000000      NO
          RMS step            0.0149206496            0.0020000000      NO
          MAX step            0.0359042695            0.0040000000      NO
          ........................................................
          Max(Bonds)      0.0190      Max(Angles)    1.59
          Max(Dihed)        0.54      Max(Improp)    0.00
          ---------------------------------------------------------------------

The optimization has not yet converged - more geometry cycles are needed


    ---------------------------------------------------------------------------
                         Redundant Internal Coordinates
                            (Angstroem and degrees)

        Definition                    Value    dE/dq     Step     New-Value
    ----------------------------------------------------------------------------
     1. B(C   1,H   0)                1.0971  0.006638 -0.0099    1.0871   
     2. B(H   2,C   1)                1.0979  0.008801 -0.0132    1.0847   
     3. B(H   3,C   1)                1.0979  0.008799 -0.0132    1.0847   
     4. B(C   4,C   1)                1.5178  0.005036 -0.0068    1.5110   
     5. B(H   5,C   4)                1.1079  0.012148 -0.0189    1.0890   
     6. B(H   6,C   4)                1.1080  0.012183 -0.0190    1.0890   
     7. B(O   7,C   4)                1.4095  0.001391 -0.0014    1.4080   
     8. B(H   8,O   7)                0.9473  0.008032 -0.0078    0.9395   
     9. A(H   2,C   1,C   4)          111.86  0.004376   -0.84    111.03   
    10. A(H   0,C   1,C   4)          110.44 -0.001309    0.29    110.73   
    11. A(H   3,C   1,C   4)          111.86  0.004351   -0.83    111.02   
    12. A(H   2,C   1,H   3)          107.17 -0.003825    0.55    107.72   
    13. A(H   0,C   1,H   2)          107.65 -0.002046    0.46    108.12   
    14. A(H   0,C   1,H   3)          107.64 -0.002048    0.47    108.11   
    15. A(C   1,C   4,H   5)          110.85  0.002852   -0.63    110.22   
    16. A(H   6,C   4,O   7)          110.11 -0.000096    0.22    110.33   
    17. A(H   5,C   4,O   7)          110.11 -0.000074    0.22    110.33   
    18. A(C   1,C   4,O   7)          107.80 -0.003772    0.65    108.45   
    19. A(H   5,C   4,H   6)          107.13 -0.001700    0.18    107.31   
    20. A(C   1,C   4,H   6)          110.86  0.002862   -0.64    110.22   
    21. A(C   4,O   7,H   8)          106.60 -0.010096    1.59    108.19   
    22. D(H   5,C   4,C   1,H   2)   -179.34 -0.000196    0.08   -179.26   
    23. D(H   6,C   4,C   1,H   0)     59.38  0.000784   -0.29     59.10   
    24. D(H   5,C   4,C   1,H   0)    -59.46 -0.000777    0.31    -59.15   
    25. D(H   6,C   4,C   1,H   2)    -60.50  0.001365   -0.52    -61.01   
    26. D(H   6,C   4,C   1,H   3)    179.25  0.000182   -0.05    179.20   
    27. D(H   5,C   4,C   1,H   3)     60.41 -0.001379    0.54     60.96   
    28. D(H   8,O   7,C   4,C   1)    179.94 -0.000003    0.01    179.95   
    29. D(H   8,O   7,C   4,H   6)    -59.01  0.001091   -0.23    -59.25   
    30. D(H   8,O   7,C   4,H   5)     58.90 -0.001097    0.25     59.14   
    ----------------------------------------------------------------------------

Geometry step timings:
Preparation and reading OPT file:      0.000 s (13.575 %)
Internal coordinates            :      0.000 s ( 2.405 %)
B/P matrices and projection     :      0.001 s (21.035 %)
Hessian update/contruction      :      0.000 s ( 9.743 %)
Making the step                 :      0.000 s (15.287 %)
Converting the step to Cartesian:      0.000 s ( 3.791 %)
Storing new data                :      0.000 s ( 2.038 %)
Checking convergence            :      0.000 s ( 0.163 %)
Final printing                  :      0.001 s (31.675 %)
Total time                      :      0.002 s

Time for energy+gradient        :      6.186 s
Time for complete geometry iter :      6.209 s

         *************************************************************
         *                GEOMETRY OPTIMIZATION CYCLE   2            *
         *************************************************************
---------------------------------
CARTESIAN COORDINATES (ANGSTROEM)
---------------------------------
  H      1.880848   -0.040158    1.081827
  C      1.269486   -0.047491    0.182908
  H      1.566016    0.794315   -0.433539
  H      1.491564   -0.954765   -0.368568
  C     -0.198310    0.027976    0.533736
  H     -0.478670   -0.815513    1.162901
  H     -0.404045    0.935928    1.098736
  O     -0.943313    0.015955   -0.661013
  H     -1.854978    0.062153   -0.438690

----------------------------
CARTESIAN COORDINATES (A.U.)
----------------------------
  NO LB      ZA    FRAG     MASS         X           Y           Z
   0 H     1.0000    0     1.008    3.554288   -0.075888    2.044357
   1 C     6.0000    0    12.011    2.398982   -0.089744    0.345646
   2 H     1.0000    0     1.008    2.959342    1.501038   -0.819270
   3 H     1.0000    0     1.008    2.818647   -1.804245   -0.696493
   4 C     6.0000    0    12.011   -0.374751    0.052867    1.008616
   5 H     1.0000    0     1.008   -0.904555   -1.541096    2.197565
   6 H     1.0000    0     1.008   -0.763534    1.768648    2.076310
   7 O     8.0000    0    15.999   -1.782603    0.030150   -1.249133
   8 H     1.0000    0     1.008   -3.505400    0.117452   -0.829003

--------------------------------
INTERNAL COORDINATES (ANGSTROEM)
--------------------------------
 H      0   0   0     0.000000000000     0.00000000     0.00000000
 C      1   0   0     1.087139723663     0.00000000     0.00000000
 H      2   1   0     1.084699738807   108.11639034     0.00000000
 H      2   1   3     1.084708148671   108.11313389   116.34628878
 C      2   1   3     1.511026584178   110.72916830   238.17020687
 H      5   2   1     1.089001514739   110.21458778   300.84727257
 H      5   2   1     1.089003555187   110.21938479    59.09910178
 O      5   2   1     1.408047944888   108.45333578   179.97436398
 H      8   5   2     0.939518423939   108.19242637   179.94635526

---------------------------
INTERNAL COORDINATES (A.U.)
---------------------------
 H      0   0   0     0.000000000000     0.00000000     0.00000000
 C      1   0   0     2.054396347029     0.00000000     0.00000000
 H      2   1   0     2.049785443882   108.11639034     0.00000000
 H      2   1   3     2.049801336222   108.11313389   116.34628878
 C      2   1   3     2.855426425171   110.72916830   238.17020687
 H      5   2   1     2.057914622282   110.21458778   300.84727257
 H      5   2   1     2.057918478170   110.21938479    59.09910178
 O      5   2   1     2.660824999268   108.45333578   179.97436398
 H      8   5   2     1.775432519019   108.19242637   179.94635526

------------------------------------------------------------------------------
                   ___                                                        
                  /   \      - P O W E R E D   B Y -                         
                 /     \                                                     
                 |  |  |   _    _      __       _____    __    __             
                 |  |  |  | |  | |    /  \     |  _  \  |  |  /  |          
                  \  \/   | |  | |   /    \    | | | |  |  | /  /          
                 / \  \   | |__| |  /  /\  \   | |_| |  |  |/  /          
                |  |  |   |  __  | /  /__\  \  |    /   |      \           
                |  |  |   | |  | | |   __   |  |    \   |  |\   \          
                \     /   | |  | | |  |  |  |  | |\  \  |  | \   \       
                 \___/    |_|  |_| |__|  |__|  |_| \__\ |__|  \__/        
                                                                              
                      - O R C A' S   B I G   F R I E N D -                    
                                      &                                       
                       - I N T E G R A L  F E E D E R -                       
                                                                              
 v1 FN, 2020, v2 2021, v3 2022-2024                                           
------------------------------------------------------------------------------


----------------------
SHARK INTEGRAL PACKAGE
----------------------

Number of atoms                             ...      9
Number of basis functions                   ...     90
Number of shells                            ...     48
Maximum angular momentum                    ...      2
Integral batch strategy                     ... SHARK/LIBINT Hybrid
RI-J (if used) integral strategy            ... SPLIT-RIJ (Revised 2003 algorithm where possible)
Printlevel                                  ...      1
Contraction scheme used                     ... SEGMENTED contraction
Prescreening option                         ... SCHWARTZ
   Thresh                                   ... 2.500e-11
   Tcut                                     ... 2.500e-12
   Tpresel                                  ... 2.500e-12 
Coulomb Range Separation                    ... NOT USED
Exchange Range Separation                   ... NOT USED
Multipole approximations                    ... NOT USED
Finite Nucleus Model                        ... NOT USED
CABS basis                                  ... NOT available
Auxiliary Coulomb fitting basis             ... NOT available
Auxiliary J/K fitting basis                 ... NOT available
Auxiliary Correlation fitting basis         ... NOT available
Auxiliary 'external' fitting basis          ... NOT available

Checking pre-screening integrals            ... done (  0.0 sec) Dimension = 48
Check shell pair data                       ... done (  0.0 sec)
Shell pair information
Shell pair cut-off parameter TPreSel        ...   2.5e-12
Total number of shell pairs                 ...      1176
Shell pairs after pre-screening             ...      1166
Total number of primitive shell pairs       ...      3909
Primitive shell pairs kept                  ...      3206
          la=0 lb=0:    456 shell pairs
          la=1 lb=0:    449 shell pairs
          la=1 lb=1:    120 shell pairs
          la=2 lb=0:     90 shell pairs
          la=2 lb=1:     45 shell pairs
          la=2 lb=2:      6 shell pairs

Calculating one electron integrals          ... done (  0.0 sec)
Calculating Nuclear repulsion               ... done (  0.0 sec) ENN=     82.411858497815 Eh

Diagonalization of the overlap matrix:
Smallest eigenvalue                        ... 2.935e-03
Time for diagonalization                   ...    0.001 sec
Threshold for overlap eigenvalues          ... 1.000e-07
Number of eigenvalues below threshold      ... 0
Time for construction of square roots      ...    0.000 sec
Total time needed                          ...    0.001 sec

-------------------
DFT GRID GENERATION
-------------------

General Integration Accuracy     IntAcc      ... 4.388
Radial Grid Type                 RadialGrid  ... OptM3 with GC (2021)
Angular Grid (max. ang.)         AngularGrid ... 4 (Lebedev-302)
Angular grid pruning method      GridPruning ... 4 (adaptive)
Weight generation scheme         WeightScheme... mBecke (2022)
Basis function cutoff            BFCut       ... 1.0000e-11
Integration weight cutoff        WCut        ... 1.0000e-14
Partially contracted basis set               ... off
Rotationally invariant grid construction     ... off
Angular grids for H and He will be reduced by one unit

Total number of grid points                  ...    37713
Total number of batches                      ...      594
Average number of points per batch           ...       63
Average number of grid points per atom       ...     4190
Initializing property integral containers    ... done (  0.0 sec)

SHARK setup successfully completed in   0.3 seconds

Maximum memory used throughout the entire STARTUP-calculation: 14.6 MB
Occupation numbers will be reassigned to an Aufbau configuration
             **** ENERGY FILE WAS UPDATED (ethanol.en.tmp) ****
Finished Guess after   0.0 sec
Maximum memory used throughout the entire GUESS-calculation: 5.3 MB
----------------------------------------D-I-I-S--------------------------------------------
Iteration    Energy (Eh)           Delta-E    RMSDP     MaxDP     DIISErr   Damp  Time(sec)
-------------------------------------------------------------------------------------------
               ***  Starting incremental Fock matrix formation  ***
    1    -154.1253212889077417     0.00e+00  8.18e-05  1.44e-03  8.34e-03  0.700   0.4
    2    -154.1254007686475234    -7.95e-05  7.18e-05  1.20e-03  6.36e-03  0.700   0.3
                               ***Turning on AO-DIIS***
    3    -154.1254609779751945    -6.02e-05  6.33e-05  9.63e-04  4.81e-03  0.700   0.3
    4    -154.1255055792912003    -4.46e-05  1.70e-04  2.48e-03  3.48e-03  0.000   0.3
                              *** Initializing SOSCF ***
---------------------------------------S-O-S-C-F--------------------------------------
Iteration    Energy (Eh)           Delta-E    RMSDP     MaxDP     MaxGrad    Time(sec)
--------------------------------------------------------------------------------------
    5    -154.1256251839730567    -1.20e-04  1.84e-05  1.83e-04  3.98e-04     0.3
               *** Restarting incremental Fock matrix formation ***
    6    -154.1256259026431508    -7.19e-07  9.60e-06  8.34e-05  7.47e-05     0.4
    7    -154.1256260232407271    -1.21e-07  5.85e-06  6.24e-05  2.89e-05     0.3
    8    -154.1256260460215231    -2.28e-08  4.04e-07  5.73e-06  3.98e-06     0.3
    9    -154.1256260465290779    -5.08e-10  2.02e-07  2.88e-06  2.48e-06     0.3
                 **** Energy Check signals convergence ****

               *****************************************************
               *                     SUCCESS                       *
               *           SCF CONVERGED AFTER   9 CYCLES          *
               *****************************************************

             **** ENERGY FILE WAS UPDATED (ethanol.en.tmp) ****

----------------
TOTAL SCF ENERGY
----------------

Total Energy       :       -154.12562604652908 Eh           -4193.97150 eV

Components:
Nuclear Repulsion  :         82.41185849781466 Eh            2242.54068 eV
Electronic Energy  :       -236.53748454434373 Eh           -6436.51218 eV
One Electron Energy:       -372.80737449721840 Eh          -10144.60440 eV
Two Electron Energy:        136.26988995287468 Eh            3708.09222 eV

Virial components:
Potential Energy   :       -308.27859912927215 Eh           -8388.68715 eV
Kinetic Energy     :        154.15297308274305 Eh            4194.71565 eV
Virial Ratio       :          1.99982259806174

---------------
SCF CONVERGENCE
---------------

  Last Energy change         ...    5.0755e-10  Tolerance :   1.0000e-08
  Last MAX-Density change    ...    2.8839e-06  Tolerance :   1.0000e-07
  Last RMS-Density change    ...    2.0214e-07  Tolerance :   5.0000e-09
  Last DIIS Error            ...    3.9794e-04  Tolerance :   5.0000e-07
  Last Orbital Gradient      ...    2.4812e-06  Tolerance :   1.0000e-05
  Last Orbital Rotation      ...    1.2550e-06  Tolerance :   1.0000e-05


Total SCF time: 0 days 0 hours 0 min 3 sec 
Finished LeanSCF after   3.0 sec

Maximum memory used throughout the entire LEANSCF-calculation: 8.9 MB

------------------------------------------------------------------------------
                         ORCA PROPERTY INTEGRAL CALCULATIONS
------------------------------------------------------------------------------

GBWName                                   ... ethanol.gbw
Number of atoms                           ...      9
Number of basis functions                 ...     90
Max core memory                           ...   1024 MB

Dipole integrals                          ... YES
Quadrupole integrals                      ...  NO
Linear momentum integrals                 ...  NO
Angular momentum integrals                ...  NO
Higher moments length integrals           ...  NO
Higher moments velocity integrals         ...  NO
Kinetic energy integrals                  ...  NO
GIAO right hand sides                     ...  NO
GIAO dipole derivative integrals          ...  NO
SOC integrals                             ...  NO
EPR diamagnetic integrals (GIAO)          ...  NO
EPR gauge integrals                       ...  NO
Field gradient integrals                  ...  NO (   0 nuclei)
Spin-dipole/Fermi contact integrals       ...  NO (   0 nuclei)
Contact density integrals                 ...  NO (   0 nuclei)
Nucleus-orbit integrals                   ...  NO (   0 nuclei)
Geometric perturbations                   ...  NO (   9 nuclei)

Choice of electric origin   ... Center of mass
Position of electric origin ... ( -0.0003,  0.0001,  0.0062) 
Choice of magnetic origin   ... GIAO
Position of magnetic origin ... (  0.0000,  0.0000,  0.0000) 

Calculating integrals                     ... Electric Dipole (Length)     done (  0.0 sec)

Property integrals calculated in   0.0 sec

Maximum memory used throughout the entire PROPINT-calculation: 5.4 MB

-------------------------   --------------------
FINAL SINGLE POINT ENERGY      -154.125626046529
-------------------------   --------------------

------------------------------------------------------------------------------
                         ORCA SCF GRADIENT CALCULATION
------------------------------------------------------------------------------

Nuc. rep. gradient        (SHARK) ... done (  0.0 sec)
HCore & Overlap gradient  (SHARK) ... done (  0.0 sec)
Two-electron gradient     (SHARK) ... done (  1.5 sec)

------------------
CARTESIAN GRADIENT
------------------

   1   H   :    0.000751081   -0.000040734   -0.000180223
   2   C   :   -0.004505743    0.000185322   -0.000463393
   3   H   :    0.001396717   -0.000846918    0.000050305
   4   H   :    0.001461768    0.000718155   -0.000002389
   5   C   :    0.001973590   -0.000002163    0.002281794
   6   H   :   -0.000682540    0.000656098    0.000139166
   7   H   :   -0.000738271   -0.000585013    0.000188905
   8   O   :   -0.000732086   -0.000120500   -0.004369701
   9   H   :    0.001075483    0.000035752    0.002355537

Difference to translation invariance:
           :   -0.0000000000   -0.0000000000   -0.0000000000

Difference to rotation invariance:
           :   -0.0000000254   -0.0000006529   -0.0000000043

Norm of the Cartesian gradient     ...    0.0079852212
RMS gradient                       ...    0.0015367565
MAX gradient                       ...    0.0045057429

-------
TIMINGS
-------

Total SCF gradient time     ....        1.514 sec

Densities                   ....       0.000 sec  (  0.0%)
One electron gradient       ....       0.033 sec  (  2.2%)
Two electron gradient       ....       1.481 sec  ( 97.8%)

Maximum memory used throughout the entire SCFGRAD-calculation: 14.6 MB
------------------------------------------------------------------------------
                         ORCA GEOMETRY RELAXATION STEP
------------------------------------------------------------------------------

Reading the OPT-File                    .... done
Getting information on internals        .... done
Copying old internal coords+grads       .... done
Making the new internal coordinates     .... (2022 redundants) done
Validating the new internal coordinates .... (2022 redundants) done
Calculating the B-matrix                .... done
Calculating the G,G- and P matrices     .... done
Transforming gradient to internals      .... done
Projecting the internal gradient        .... done
Number of atoms                         ....   9
Number of internal coordinates          ....  30
Current Energy                          ....  -154.125626047 Eh
Current gradient norm                   ....     0.007985221 Eh/bohr
Maximum allowed component of the step   ....  0.300
Current trust radius                    ....  0.300
Updating the Hessian (BFGS)             .... done
Forming the augmented Hessian           .... done
Diagonalizing the augmented Hessian     .... done
Last element of RFO vector              ....  0.999738593
Lowest eigenvalues of augmented Hessian:
 -0.000136180  0.012132922  0.021523698  0.109329847  0.129277419
Length of the computed step             ....  0.022869616
The final length of the internal step   ....  0.022869616
Converting the step to Cartesian space:
 Initial RMS(Int)=    0.0041754016
Transforming coordinates:
 Iter   0:  RMS(Cart)=    0.0060894550 RMS(Int)=    0.0041714420
done
Storing new coordinates                 .... done
The predicted energy change is          ....    -0.000068126
Previously predicted energy change      ....    -0.001138391
Actually observed energy change         ....    -0.001241182
Ratio of predicted to observed change   ....     1.090294862
New trust radius                        ....     0.450000000

                                .--------------------.
          ----------------------|Geometry convergence|-------------------------
          Item                value                   Tolerance       Converged
          ---------------------------------------------------------------------
          Energy change      -0.0012411820            0.0000050000      NO
          RMS gradient        0.0011315976            0.0001000000      NO
          MAX gradient        0.0045167145            0.0003000000      NO
          RMS step            0.0041754016            0.0020000000      NO
          MAX step            0.0150730868            0.0040000000      NO
          ........................................................
          Max(Bonds)      0.0018      Max(Angles)    0.86
          Max(Dihed)        0.23      Max(Improp)    0.00
          ---------------------------------------------------------------------

The optimization has not yet converged - more geometry cycles are needed


    ---------------------------------------------------------------------------
                         Redundant Internal Coordinates
                            (Angstroem and degrees)

        Definition                    Value    dE/dq     Step     New-Value
    ----------------------------------------------------------------------------
     1. B(C   1,H   0)                1.0871  0.000273 -0.0010    1.0862   
     2. B(H   2,C   1)                1.0847 -0.000304 -0.0002    1.0845   
     3. B(H   3,C   1)                1.0847 -0.000300 -0.0002    1.0845   
     4. B(C   4,C   1)                1.5110 -0.000733  0.0007    1.5118   
     5. B(H   5,C   4)                1.0890 -0.000252 -0.0005    1.0885   
     6. B(H   6,C   4)                1.0890 -0.000250 -0.0005    1.0885   
     7. B(O   7,C   4)                1.4080  0.001528 -0.0018    1.4063   
     8. B(H   8,O   7)                0.9395 -0.000484  0.0001    0.9396   
     9. A(H   2,C   1,C   4)          111.02  0.001789   -0.41    110.61   
    10. A(H   0,C   1,C   4)          110.73  0.000255   -0.03    110.70   
    11. A(H   3,C   1,C   4)          111.02  0.001778   -0.41    110.61   
    12. A(H   2,C   1,H   3)          107.71 -0.001683    0.34    108.05   
    13. A(H   0,C   1,H   2)          108.12 -0.001166    0.28    108.40   
    14. A(H   0,C   1,H   3)          108.11 -0.001169    0.29    108.40   
    15. A(C   1,C   4,H   5)          110.21  0.000658   -0.21    110.00   
    16. A(H   6,C   4,O   7)          110.33 -0.000375    0.10    110.43   
    17. A(H   5,C   4,O   7)          110.33 -0.000370    0.10    110.42   
    18. A(C   1,C   4,O   7)          108.45  0.000104   -0.03    108.43   
    19. A(H   5,C   4,H   6)          107.30 -0.000681    0.26    107.56   
    20. A(C   1,C   4,H   6)          110.22  0.000666   -0.21    110.01   
    21. A(C   4,O   7,H   8)          108.19 -0.004517    0.86    109.06   
    22. D(H   5,C   4,C   1,H   2)   -179.26  0.000130   -0.08   -179.34   
    23. D(H   6,C   4,C   1,H   0)     59.10 -0.000010    0.04     59.13   
    24. D(H   5,C   4,C   1,H   0)    -59.15  0.000012   -0.02    -59.17   
    25. D(H   6,C   4,C   1,H   2)    -61.01  0.000107   -0.03    -61.04   
    26. D(H   6,C   4,C   1,H   3)    179.20 -0.000137    0.11    179.31   
    27. D(H   5,C   4,C   1,H   3)     60.95 -0.000115    0.05     61.00   
    28. D(H   8,O   7,C   4,C   1)    179.95 -0.000004    0.01    179.95   
    29. D(H   8,O   7,C   4,H   6)    -59.25  0.000650   -0.21    -59.46   
    30. D(H   8,O   7,C   4,H   5)     59.14 -0.000653    0.23     59.37   
    ----------------------------------------------------------------------------

Geometry step timings:
Preparation and reading OPT file:      0.000 s (15.175 %)
Internal coordinates            :      0.000 s ( 2.147 %)
B/P matrices and projection     :      0.001 s (18.559 %)
Hessian update/contruction      :      0.000 s (12.555 %)
Making the step                 :      0.000 s (12.955 %)
Converting the step to Cartesian:      0.000 s ( 2.984 %)
Storing new data                :      0.000 s ( 1.856 %)
Checking convergence            :      0.000 s ( 1.128 %)
Final printing                  :      0.001 s (32.606 %)
Total time                      :      0.003 s

Time for energy+gradient        :      4.964 s
Time for complete geometry iter :      4.985 s

         *************************************************************
         *                GEOMETRY OPTIMIZATION CYCLE   3            *
         *************************************************************
---------------------------------
CARTESIAN COORDINATES (ANGSTROEM)
---------------------------------
  H      1.881678   -0.040275    1.082163
  C      1.270878   -0.047522    0.184023
  H      1.559470    0.796364   -0.433038
  H      1.484866   -0.956103   -0.368143
  C     -0.197467    0.028011    0.535717
  H     -0.473715   -0.816625    1.164230
  H     -0.398995    0.936806    1.099827
  O     -0.941539    0.015886   -0.657524
  H     -1.856577    0.061859   -0.448955

----------------------------
CARTESIAN COORDINATES (A.U.)
----------------------------
  NO LB      ZA    FRAG     MASS         X           Y           Z
   0 H     1.0000    0     1.008    3.555855   -0.076109    2.044991
   1 C     6.0000    0    12.011    2.401612   -0.089803    0.347753
   2 H     1.0000    0     1.008    2.946972    1.504909   -0.818324
   3 H     1.0000    0     1.008    2.805991   -1.806773   -0.695689
   4 C     6.0000    0    12.011   -0.373159    0.052933    1.012358
   5 H     1.0000    0     1.008   -0.895192   -1.543198    2.200075
   6 H     1.0000    0     1.008   -0.753991    1.770307    2.078372
   7 O     8.0000    0    15.999   -1.779250    0.030020   -1.242541
   8 H     1.0000    0     1.008   -3.508422    0.116897   -0.848401

--------------------------------
INTERNAL COORDINATES (ANGSTROEM)
--------------------------------
 H      0   0   0     0.000000000000     0.00000000     0.00000000
 C      1   0   0     1.086178318999     0.00000000     0.00000000
 H      2   1   0     1.084524064166   108.39948827     0.00000000
 H      2   1   3     1.084526243510   108.39852563   117.03988188
 C      2   1   3     1.511764665391   110.70091326   238.51961995
 H      5   2   1     1.088462778309   110.00297564   300.83025651
 H      5   2   1     1.088458794214   110.00586659    59.13544974
 O      5   2   1     1.406276643661   108.42628988   179.98400374
 H      8   5   2     0.939632899339   109.05605060   179.95443260

---------------------------
INTERNAL COORDINATES (A.U.)
---------------------------
 H      0   0   0     0.000000000000     0.00000000     0.00000000
 C      1   0   0     2.052579555511     0.00000000     0.00000000
 H      2   1   0     2.049453466921   108.39948827     0.00000000
 H      2   1   3     2.049457585285   108.39852563   117.03988188
 C      2   1   3     2.856821196529   110.70091326   238.51961995
 H      5   2   1     2.056896557970   110.00297564   300.83025651
 H      5   2   1     2.056889029122   110.00586659    59.13544974
 O      5   2   1     2.657477725050   108.42628988   179.98400374
 H      8   5   2     1.775648846174   109.05605060   179.95443260

------------------------------------------------------------------------------
                   ___                                                        
                  /   \      - P O W E R E D   B Y -                         
                 /     \                                                     
                 |  |  |   _    _      __       _____    __    __             
                 |  |  |  | |  | |    /  \     |  _  \  |  |  /  |          
                  \  \/   | |  | |   /    \    | | | |  |  | /  /          
                 / \  \   | |__| |  /  /\  \   | |_| |  |  |/  /          
                |  |  |   |  __  | /  /__\  \  |    /   |      \           
                |  |  |   | |  | | |   __   |  |    \   |  |\   \          
                \     /   | |  | | |  |  |  |  | |\  \  |  | \   \       
                 \___/    |_|  |_| |__|  |__|  |_| \__\ |__|  \__/        
                                                                              
                      - O R C A' S   B I G   F R I E N D -                    
                                      &                                       
                       - I N T E G R A L  F E E D E R -                       
                                                                              
 v1 FN, 2020, v2 2021, v3 2022-2024                                           
------------------------------------------------------------------------------


----------------------
SHARK INTEGRAL PACKAGE
----------------------

Number of atoms                             ...      9
Number of basis functions                   ...     90
Number of shells                            ...     48
Maximum angular momentum                    ...      2
Integral batch strategy                     ... SHARK/LIBINT Hybrid
RI-J (if used) integral strategy            ... SPLIT-RIJ (Revised 2003 algorithm where possible)
Printlevel                                  ...      1
Contraction scheme used                     ... SEGMENTED contraction
Prescreening option                         ... SCHWARTZ
   Thresh                                   ... 2.500e-11
   Tcut                                     ... 2.500e-12
   Tpresel                                  ... 2.500e-12 
Coulomb Range Separation                    ... NOT USED
Exchange Range Separation                   ... NOT USED
Multipole approximations                    ... NOT USED
Finite Nucleus Model                        ... NOT USED
CABS basis                                  ... NOT available
Auxiliary Coulomb fitting basis             ... NOT available
Auxiliary J/K fitting basis                 ... NOT available
Auxiliary Correlation fitting basis         ... NOT available
Auxiliary 'external' fitting basis          ... NOT available

Checking pre-screening integrals            ... done (  0.0 sec) Dimension = 48
Check shell pair data                       ... done (  0.0 sec)
Shell pair information
Shell pair cut-off parameter TPreSel        ...   2.5e-12
Total number of shell pairs                 ...      1176
Shell pairs after pre-screening             ...      1166
Total number of primitive shell pairs       ...      3909
Primitive shell pairs kept                  ...      3206
          la=0 lb=0:    456 shell pairs
          la=1 lb=0:    449 shell pairs
          la=1 lb=1:    120 shell pairs
          la=2 lb=0:     90 shell pairs
          la=2 lb=1:     45 shell pairs
          la=2 lb=2:      6 shell pairs

Calculating one electron integrals          ... done (  0.0 sec)
Calculating Nuclear repulsion               ... done (  0.0 sec) ENN=     82.451564917808 Eh

Diagonalization of the overlap matrix:
Smallest eigenvalue                        ... 2.934e-03
Time for diagonalization                   ...    0.001 sec
Threshold for overlap eigenvalues          ... 1.000e-07
Number of eigenvalues below threshold      ... 0
Time for construction of square roots      ...    0.000 sec
Total time needed                          ...    0.001 sec

-------------------
DFT GRID GENERATION
-------------------

General Integration Accuracy     IntAcc      ... 4.388
Radial Grid Type                 RadialGrid  ... OptM3 with GC (2021)
Angular Grid (max. ang.)         AngularGrid ... 4 (Lebedev-302)
Angular grid pruning method      GridPruning ... 4 (adaptive)
[...]
      6       0.173312  -0.119108  -0.442276   0.411456   0.075083   0.477840
      7       0.253833  -0.050469  -0.000743  -0.208681   0.044830   0.017159
      8       0.408192  -0.159870  -0.233095  -0.157590   0.141745   0.062294
      9      -0.152411   0.114851  -0.441357  -0.427197   0.071463   0.474706
     10       0.236882  -0.048497   0.021175  -0.160833  -0.040499  -0.053074
     11      -0.426294   0.163512  -0.233969   0.171198   0.144923   0.064978
     12       0.002302  -0.002488  -0.069835   0.002622   0.087176  -0.173380
     13       0.054118  -0.058199   0.009366   0.061784  -0.008989   0.008931
     14      -0.001999   0.002156   0.172994  -0.002285  -0.143157   0.042473
     15       0.003401   0.013304  -0.121714   0.345411   0.245452  -0.081308
     16       0.116102  -0.081836   0.000544  -0.241066  -0.014270   0.009337
     17       0.081712  -0.022312   0.138248  -0.253695  -0.067980   0.096291
     18       0.006210  -0.020171  -0.120905  -0.363867   0.245601  -0.081558
     19       0.109662  -0.078541   0.019990  -0.191576  -0.011659   0.004792
     20      -0.090034   0.028232   0.137512   0.269621  -0.068055   0.096246
     21      -0.003650  -0.001377   0.229809  -0.000924   0.099373   0.036875
     22      -0.086100  -0.033400  -0.009631  -0.021879  -0.000329   0.001489
     23       0.003165   0.001215   0.004360   0.000809   0.105738   0.083186
     24       0.016131   0.038273   0.160408   0.001481   0.123198  -0.094243
     25       0.382654   0.907007  -0.018769   0.034747   0.001937  -0.015963
     26      -0.013935  -0.033193  -0.320875  -0.001180   0.196583  -0.544593
                 12         13         14         15         16         17    
      0      -0.345868  -0.009197  -0.186760  -0.004415   0.463982   0.217081
      1       0.020325  -0.222236   0.009549  -0.106022  -0.032635  -0.014029
      2       0.155349   0.008108   0.048724   0.003890  -0.348901  -0.218687
      3      -0.068674   0.004866  -0.003948   0.003430  -0.128021  -0.077712
      4       0.001362   0.114113  -0.002882   0.080421   0.006989   0.002110
      5      -0.044067  -0.004128  -0.085542  -0.002924   0.041568  -0.026085
      6       0.075414   0.325674   0.205465   0.201111   0.460895   0.161024
      7       0.054700  -0.117240   0.049769  -0.060664  -0.198700   0.124243
      8       0.110758  -0.158134   0.086956  -0.104598   0.008868   0.262734
      9       0.070394  -0.334380   0.200244  -0.205454   0.476086   0.147175
     10      -0.052712  -0.077100  -0.060605  -0.035464   0.158977  -0.117267
     11       0.114921   0.165116   0.091336   0.108084  -0.004338   0.268972
     12       0.160745  -0.007511  -0.010441  -0.000749  -0.044952   0.152343
     13       0.000990  -0.176163   0.004447  -0.017834   0.001580  -0.006259
     14       0.214799   0.006352   0.111596   0.000601  -0.008844   0.008466
     15       0.396198   0.042411  -0.285612  -0.606137   0.241633  -0.464606
     16      -0.025321   0.182731   0.024922  -0.002609  -0.040631   0.036874
     17       0.257283   0.521055   0.025384  -0.260151   0.052842  -0.222973
     18       0.397556  -0.028392  -0.285777   0.604823   0.244427  -0.466505
     19       0.010551   0.146895   0.001427  -0.034988   0.023737  -0.013566
     20       0.255423  -0.533474   0.026097   0.261534   0.050455  -0.221290
     21      -0.095724   0.002244   0.020416  -0.001331   0.008911  -0.024256
     22      -0.001604   0.052343  -0.004040  -0.030956  -0.000961   0.002593
     23      -0.154562  -0.001834  -0.086908   0.001188  -0.015876   0.042467
     24      -0.171441  -0.000217   0.199842  -0.000754   0.032633  -0.098454
     25      -0.010119  -0.004470   0.020418  -0.014683   0.002392  -0.007975
     26      -0.474913  -0.000071   0.790464   0.000075   0.103130  -0.332850
                 18         19         20         21         22         23    
      0       0.029630  -0.214081   0.087875   0.079066   0.000029   0.351897
      1       0.714265   0.014925  -0.006424   0.001478  -0.004469   0.004522
      2      -0.025613   0.158443  -0.071168   0.131018   0.000493   0.527647
      3      -0.001864  -0.021320  -0.004048  -0.007440  -0.000727  -0.050055
      4      -0.050174   0.002649  -0.000095   0.000034  -0.016297   0.002310
      5       0.001941   0.047103  -0.007319  -0.007504   0.000609   0.004780
      6       0.393257   0.128512  -0.021378   0.008557   0.029957   0.129483
      7       0.044346  -0.398916   0.094325   0.031904   0.098260   0.421755
      8       0.288359  -0.450293   0.117789  -0.026068  -0.073523  -0.305067
      9      -0.389993   0.160555  -0.028868   0.005719  -0.021144   0.092263
     10       0.057074   0.352338  -0.083253  -0.034286   0.104936  -0.452578
     11      -0.293963  -0.478000   0.124388  -0.023598   0.065617  -0.272828
     12      -0.001448   0.070252   0.014123  -0.027714   0.004014   0.006592
     13      -0.021674  -0.002743  -0.003794   0.003352   0.094108  -0.000662
     14       0.000767   0.006564  -0.086648   0.058887  -0.003476  -0.008654
     15      -0.032615  -0.238781  -0.075682   0.171151  -0.183540  -0.027738
     16       0.004535   0.132225   0.440067   0.555484  -0.538034  -0.077284
     17       0.026604   0.061828   0.516737  -0.382655   0.395611   0.054450
     18       0.035957  -0.248943  -0.111203   0.122165   0.135907  -0.021066
     19      -0.000186  -0.106577  -0.392901  -0.594641  -0.579123   0.083907
     20      -0.025132   0.070647   0.547403  -0.340305  -0.354366   0.049001
     21       0.000165  -0.009071   0.001555   0.001902  -0.000023  -0.000332
     22       0.001884   0.000570  -0.000348  -0.000032  -0.000518   0.000004
     23      -0.000219   0.005104  -0.007679   0.001331   0.000020  -0.000294
     24       0.000606  -0.026351   0.004536   0.002038  -0.000022  -0.001679
     25       0.006183  -0.001918   0.000044   0.000218  -0.000515  -0.000016
     26       0.000941  -0.083111   0.006406   0.008216   0.000011  -0.002382
                 24         25         26    
      0      -0.423492   0.000444  -0.000429
      1      -0.004813   0.015068  -0.000025
      2      -0.618400  -0.000843  -0.001154
      3       0.017740   0.003914  -0.000181
      4       0.002534   0.091806   0.000014
      5       0.090421  -0.003340   0.000181
      6       0.122056  -0.178153  -0.000360
      7       0.367767  -0.535644  -0.000323
      8      -0.248351   0.401178   0.000108
      9       0.089478   0.130898  -0.000327
     10      -0.393463  -0.577403   0.000355
     11      -0.219846  -0.360387   0.000071
     12      -0.001957   0.000758   0.000327
     13       0.000314   0.017842  -0.000068
     14       0.006638  -0.000652  -0.001507
     15       0.015426  -0.035496  -0.001964
     16       0.045130  -0.097244  -0.000299
     17      -0.032861   0.069040  -0.001419
     18       0.011399   0.026916  -0.001938
     19      -0.048404  -0.104806   0.000356
     20      -0.029312  -0.061656  -0.001447
     21      -0.000200  -0.000016   0.061713
     22      -0.000007  -0.000369  -0.003022
     23      -0.000429   0.000013  -0.011469
     24       0.000252  -0.000018  -0.976221
     25      -0.000048  -0.000631   0.048542
     26      -0.000953   0.000022   0.201672


-----------
IR SPECTRUM
-----------

 Mode   freq       eps      Int      T**2         TX        TY        TZ
       cm**-1   L/(mol*cm) km/mol    a.u.
----------------------------------------------------------------------------
  6:    273.47   0.006630   33.50  0.007565  ( 0.003705  0.086841 -0.003175)
  7:    310.74   0.021740  109.86  0.021832  ( 0.006270  0.147524 -0.005455)
  8:    446.89   0.002373   11.99  0.001657  (-0.033839  0.000589 -0.022614)
  9:    881.81   0.000036    0.18  0.000013  ( 0.000162  0.003562 -0.000126)
 10:    969.67   0.001379    6.97  0.000444  (-0.012519 -0.000091 -0.016939)
 11:   1126.44   0.011394   57.58  0.003157  (-0.036745 -0.000002 -0.042502)
 12:   1206.69   0.006177   31.21  0.001597  ( 0.023673  0.000179  0.032201)
 13:   1285.26   0.001312    6.63  0.000319  (-0.000779 -0.017824  0.000609)
 14:   1383.10   0.022425  113.33  0.005060  ( 0.033135  0.000899  0.062936)
 15:   1415.53   0.000055    0.28  0.000012  ( 0.000121  0.003471 -0.000181)
 16:   1522.42   0.000111    0.56  0.000023  ( 0.004771 -0.000202  0.000084)
 17:   1594.10   0.002682   13.55  0.000525  ( 0.022894 -0.000902  0.000117)
 18:   1596.59   0.000899    4.54  0.000176  ( 0.000471  0.013236 -0.000486)
 19:   1618.98   0.000657    3.32  0.000127  ( 0.006530 -0.000637 -0.009147)
 20:   1656.48   0.000473    2.39  0.000089  (-0.008014  0.000159 -0.004991)
 21:   3134.10   0.015839   80.04  0.001577  (-0.016331  0.002027  0.036142)
 22:   3158.20   0.014428   72.91  0.001426  ( 0.001593  0.037698 -0.001393)
 23:   3168.34   0.004183   21.14  0.000412  (-0.019738  0.000632 -0.004696)
 24:   3231.47   0.010706   54.11  0.001034  ( 0.004508  0.000957  0.031823)
 25:   3241.92   0.012163   61.47  0.001171  ( 0.001455  0.034164 -0.001236)
 26:   4185.74   0.010003   50.55  0.000746  (-0.027284  0.001153  0.000141)

* The epsilon (eps) is given for a Dirac delta lineshape.
** The dipole moment derivative (T) already includes vibrational overlap.

The first frequency considered to be a vibration is 6
The total number of vibrations considered is 21


--------------------------
THERMOCHEMISTRY AT 298.15K
--------------------------

Temperature         ...   298.15 K
Pressure            ...     1.00 atm
Total Mass          ...    46.07 AMU
Quasi RRHO          ...     True
Cut-Off Frequency   ...     1.00 cm^-1

Throughout the following assumptions are being made:
  (1) The electronic state is orbitally nondegenerate
  (2) There are no thermally accessible electronically excited states
  (3) Hindered rotations indicated by low frequency modes are not
      treated as such but are treated as vibrations and this may
      cause some error
  (4) All equations used are the standard statistical mechanics
      equations for an ideal gas
  (5) All vibrations are strictly harmonic

freq.     273.47  E(vib)   ...       0.29 
freq.     310.74  E(vib)   ...       0.26 
freq.     446.89  E(vib)   ...       0.17 
freq.     881.81  E(vib)   ...       0.04 
freq.     969.67  E(vib)   ...       0.03 
freq.    1126.44  E(vib)   ...       0.01 
freq.    1206.69  E(vib)   ...       0.01 
freq.    1285.26  E(vib)   ...       0.01 
freq.    1383.10  E(vib)   ...       0.01 
freq.    1415.53  E(vib)   ...       0.00 
freq.    1522.42  E(vib)   ...       0.00 
freq.    1594.10  E(vib)   ...       0.00 
freq.    1596.59  E(vib)   ...       0.00 
freq.    1618.98  E(vib)   ...       0.00 
freq.    1656.48  E(vib)   ...       0.00 
freq.    3134.10  E(vib)   ...       0.00 
freq.    3158.20  E(vib)   ...       0.00 
freq.    3168.34  E(vib)   ...       0.00 
freq.    3231.47  E(vib)   ...       0.00 
freq.    3241.92  E(vib)   ...       0.00 
freq.    4185.74  E(vib)   ...       0.00 

------------
INNER ENERGY
------------

The inner energy is: U= E(el) + E(ZPE) + E(vib) + E(rot) + E(trans)
    E(el)   - is the total energy from the electronic structure calculation
              = E(kin-el) + E(nuc-el) + E(el-el) + E(nuc-nuc)
    E(ZPE)  - the the zero temperature vibrational energy from the frequency calculation
    E(vib)  - the the finite temperature correction to E(ZPE) due to population
              of excited vibrational states
    E(rot)  - is the rotational thermal energy
    E(trans)- is the translational thermal energy

Summary of contributions to the inner energy U:
Electronic energy                ...   -154.12574404 Eh
Zero point energy                ...      0.08522151 Eh      53.48 kcal/mol
Thermal vibrational correction   ...      0.00130929 Eh       0.82 kcal/mol
Thermal rotational correction    ...      0.00141627 Eh       0.89 kcal/mol
Thermal translational correction ...      0.00141627 Eh       0.89 kcal/mol
-----------------------------------------------------------------------
Total thermal energy                   -154.03638070 Eh


Summary of corrections to the electronic energy:
(perhaps to be used in another calculation)
Total thermal correction                  0.00414184 Eh       2.60 kcal/mol
Non-thermal (ZPE) correction              0.08522151 Eh      53.48 kcal/mol
-----------------------------------------------------------------------
Total correction                          0.08936335 Eh      56.08 kcal/mol


--------
ENTHALPY
--------

The enthalpy is H = U + kB*T
                kB is Boltzmann's constant
Total thermal energy              ...   -154.03638070 Eh 
Thermal Enthalpy correction       ...      0.00094421 Eh       0.59 kcal/mol
-----------------------------------------------------------------------
Total Enthalpy                    ...   -154.03543649 Eh


Note: Only C1 symmetry has been detected, increase convergence thresholds 
      if your molecule has a higher symmetry. Symmetry factor of 1.0 is   
      used for the rotational entropy correction. 
 

Note: Rotational entropy computed according to Herzberg 
Infrared and Raman Spectra, Chapter V,1, Van Nostrand Reinhold, 1945 
Point Group:  C1, Symmetry Number:   1  
Rotational constants in cm-1:     1.198241     0.315926     0.275490 

Vibrational entropy computed according to the QRRHO of S. Grimme
Chem.Eur.J. 2012 18 9955 using a reference frequency of 100.0 cm-1


-------
ENTROPY
-------

The entropy contributions are T*S = T*(S(el)+S(vib)+S(rot)+S(trans))
     S(el)   - electronic entropy
     S(vib)  - vibrational entropy
     S(rot)  - rotational entropy
     S(trans)- translational entropy
The entropies will be listed as multiplied by the temperature to get
units of energy

Electronic entropy                ...      0.00000000 Eh      0.00 kcal/mol
Vibrational entropy               ...      0.00199797 Eh      1.25 kcal/mol
Rotational entropy                ...      0.01057802 Eh      6.64 kcal/mol
Translational entropy             ...      0.01777359 Eh     11.15 kcal/mol
-----------------------------------------------------------------------
Final entropy term                ...      0.03034957 Eh     19.04 kcal/mol

In case the symmetry of your molecule has not been determined correctly
or in case you have a reason to use a different symmetry number we print 
out the resulting rotational entropy values for sn=1,12:

 non-linear molecules -----------------------------------
|  sn= 1 | S(rot)=       0.01057802 Eh      6.64 kcal/mol|
|  sn= 2 | S(rot)=       0.00992356 Eh      6.23 kcal/mol|
|  sn= 3 | S(rot)=       0.00954073 Eh      5.99 kcal/mol|
|  sn= 4 | S(rot)=       0.00926910 Eh      5.82 kcal/mol|
|  sn= 5 | S(rot)=       0.00905842 Eh      5.68 kcal/mol|
|  sn= 6 | S(rot)=       0.00888627 Eh      5.58 kcal/mol|
|  sn= 7 | S(rot)=       0.00874073 Eh      5.48 kcal/mol|
|  sn= 8 | S(rot)=       0.00861465 Eh      5.41 kcal/mol|
|  sn= 9 | S(rot)=       0.00850344 Eh      5.34 kcal/mol|
|  sn=10 | S(rot)=       0.00840396 Eh      5.27 kcal/mol|
|  sn=11 | S(rot)=       0.00831397 Eh      5.22 kcal/mol|
|  sn=12 | S(rot)=       0.00823182 Eh      5.17 kcal/mol|
 linear molecules ---------------------------------------
|  Dinfh | S(rot)=       0.00654305 Eh      4.11 kcal/mol|
|  Cinfv | S(rot)=       0.00719751 Eh      4.52 kcal/mol|
 --------------------------------------------------------


-------------------
GIBBS FREE ENERGY
-------------------

The Gibbs free energy is G = H - T*S

Total enthalpy                    ...   -154.03543649 Eh 
Total entropy correction          ...     -0.03034957 Eh    -19.04 kcal/mol
-----------------------------------------------------------------------
Final Gibbs free energy         ...   -154.06578606 Eh

For completeness - the Gibbs free energy minus the electronic energy
G-E(el)                           ...      0.05995798 Eh     37.62 kcal/mol


Maximum memory used throughout the entire PROP-calculation: 25.7 MB

--------------------------------
SUGGESTED CITATIONS FOR THIS RUN
--------------------------------

Below you find a list of papers that are relevant to this ORCA run
We neither can nor want to force you to cite these papers, but we appreciate if you do
You receive ORCA, which is the product of decades of hard work by many enthusiastic individuals, for free
The only thing we kindly ask in return is that you cite our papers,
We deeply appreciate it, if you show your appreciation for ORCA by not just citing the generic ORCA reference.

Please note that relegating all ORCA citations to the supporting information does *not* help us.
SI sections are not indexed - citations you put there will not count into any citation statistics
But we need these citations in order to attract the funding resources that allow us to do what we are doing

Therefore, if you are a happy ORCA user, please consider citing a few of the papers listed below in the main body of your paper

In addition to the list printed below, the program has created the file ethanol.bibtex that contains the list in bibtex format
You can import this file easily into all common literature databanks and citation aid programs


List of essential papers. We consider these as the minimum necessary citations

  1. Neese,F.
     Software update: the ORCA program system, version 5.0
     WIRES Comput. Molec. Sci., 2022 12(1)e1606
     doi.org/10.1002/wcms.1606

List of papers to cite with high priority. The work reported in these papers was absolutely
necessary for this run to complete.
Our perspective: the developers of density functionals and basis sets usually get cited in chemistry papers
Good! But without the algorithms to do something with them, the functionals or basis sets would not do anything.
Hence, in our opinion, the algorithm design and method developments papers are equally worthy of getting cited

  1. Bykov,D.; Petrenko,T.; Izsak,R.; Kossmann,S.; Becker,U.; Valeev,E.; Neese,F.
     Efficient implementation of the analytic second derivatives of Hartree-Fock and hybrid DFT energies: a detailed analysis of different approximations
     Molec. Phys., 2015 113 1961-1977
     doi.org/10.1080/00268976.2015.1025114
  2. Neese,F.
     The SHARK Integral Generation and Digestion System
     J. Comp. Chem., 2022  1-16
     doi.org/10.1002/jcc.26942

List of suggested additional citations. These are papers that are important in the 'surrounding' of 
of this run, or papers that preceded the highly important papers. If you like your results we are grateful for a citation.

  1. Neese,F.
     The ORCA program system
     WIRES Comput. Molec. Sci., 2012 2(1)73-78
     doi.org/10.1002/wcms.81
  2. Neese,F.
     Software update: the ORCA program system, version 4.0
     WIRES Comput. Molec. Sci., 2018 8(1)1-6
     doi.org/10.1002/wcms.1327
  3. Neese,F.; Wennmohs,F.; Becker,U.; Riplinger,C.
     The ORCA quantum chemistry program package
     J. Chem. Phys., 2020 152 Art. No. L224108
     doi.org/10.1063/5.0004608

List of optional additional citations

  1. Neese,F.
     Approximate second-order SCF convergence for spin unrestricted wavefunctions
     Chem. Phys. Lett., 2000 325(1-3)93-98
     doi.org/10.1016/s0009-2614(00)00662-x

Timings for individual modules:

Sum of individual times          ...       61.285 sec (=   1.021 min)
Startup calculation              ...        1.376 sec (=   0.023 min)   2.2 %
SCF iterations                   ...       13.347 sec (=   0.222 min)  21.8 %
Property integrals               ...        5.060 sec (=   0.084 min)   8.3 %
SCF Response                     ...       23.002 sec (=   0.383 min)  37.5 %
Property calculations            ...       12.307 sec (=   0.205 min)  20.1 %
SCF Gradient evaluation          ...        6.177 sec (=   0.103 min)  10.1 %
Geometry relaxation              ...        0.015 sec (=   0.000 min)   0.0 %
                             ****ORCA TERMINATED NORMALLY****
TOTAL RUN TIME: 0 days 0 hours 1 minutes 1 seconds 426 msec
