 Entering Gaussian System, Link 0=g16
 Input=c2h6.com
 Output=c2h6.log
 Initial command:
 /usr/local/g16/l1.exe "/scratch/lme/Gau-1233866.inp" -scrdir="/scratch/lme/"
 Entering Link 1 = /usr/local/g16/l1.exe PID=   1233868.
  
 Copyright (c) 1988,1990,1992,1993,1995,1998,2003,2009,2016,
            Gaussian, Inc.  All Rights Reserved.
  
 This is part of the Gaussian(R) 16 program.  It is based on
 the Gaussian(R) 09 system (copyright 2009, Gaussian, Inc.),
 the Gaussian(R) 03 system (copyright 2003, Gaussian, Inc.),
 the Gaussian(R) 98 system (copyright 1998, Gaussian, Inc.),
 the Gaussian(R) 94 system (copyright 1995, Gaussian, Inc.),
 the Gaussian 92(TM) system (copyright 1992, Gaussian, Inc.),
 the Gaussian 90(TM) system (copyright 1990, Gaussian, Inc.),
 the Gaussian 88(TM) system (copyright 1988, Gaussian, Inc.),
 the Gaussian 86(TM) system (copyright 1986, Carnegie Mellon
 University), and the Gaussian 82(TM) system (copyright 1983,
 Carnegie Mellon University). Gaussian is a federally registered
 trademark of Gaussian, Inc.
  
 This software contains proprietary and confidential information,
 including trade secrets, belonging to Gaussian, Inc.
  
 This software is provided under written license and may be
 used, copied, transmitted, or stored only in accord with that
 written license.
  
 The following legend is applicable only to US Government
 contracts under FAR:
  
                    RESTRICTED RIGHTS LEGEND
  
 Use, reproduction and disclosure by the US Government is
 subject to restrictions as set forth in subparagraphs (a)
 and (c) of the Commercial Computer Software - Restricted
 Rights clause in FAR 52.227-19.
  
 Gaussian, Inc.
 340 Quinnipiac St., Bldg. 40, Wallingford CT 06492
  
  
 ---------------------------------------------------------------
 Warning -- This program may not be used in any manner that
 competes with the business of Gaussian, Inc. or will provide
 assistance to any competitor of Gaussian, Inc.  The licensee
 of this program is prohibited from giving any competitor of
 Gaussian, Inc. access to this program.  By using this program,
 the user acknowledges that Gaussian, Inc. is engaged in the
 business of creating and licensing software in the field of
 computational chemistry and represents and warrants to the
 licensee that it is not a competitor of Gaussian, Inc. and that
 it will not use this program in any manner prohibited above.
 ---------------------------------------------------------------
  

 Cite this work as:
 Gaussian 16, Revision A.03,
 M. J. Frisch, G. W. Trucks, H. B. Schlegel, G. E. Scuseria, 
 M. A. Robb, J. R. Cheeseman, G. Scalmani, V. Barone, 
 G. A. Petersson, H. Nakatsuji, X. Li, M. Caricato, A. V. Marenich, 
 J. Bloino, B. G. Janesko, R. Gomperts, B. Mennucci, H. P. Hratchian, 
 J. V. Ortiz, A. F. Izmaylov, J. L. Sonnenberg, D. Williams-Young, 
 F. Ding, F. Lipparini, F. Egidi, J. Goings, B. Peng, A. Petrone, 
 T. Henderson, D. Ranasinghe, V. G. Zakrzewski, J. Gao, N. Rega, 
 G. Zheng, W. Liang, M. Hada, M. Ehara, K. Toyota, R. Fukuda, 
 J. Hasegawa, M. Ishida, T. Nakajima, Y. Honda, O. Kitao, H. Nakai, 
 T. Vreven, K. Throssell, J. A. Montgomery, Jr., J. E. Peralta, 
 F. Ogliaro, M. J. Bearpark, J. J. Heyd, E. N. Brothers, K. N. Kudin, 
 V. N. Staroverov, T. A. Keith, R. Kobayashi, J. Normand, 
 K. Raghavachari, A. P. Rendell, J. C. Burant, S. S. Iyengar, 
 J. Tomasi, M. Cossi, J. M. Millam, M. Klene, C. Adamo, R. Cammi, 
 J. W. Ochterski, R. L. Martin, K. Morokuma, O. Farkas, 
 J. B. Foresman, and D. J. Fox, Gaussian, Inc., Wallingford CT, 2016.
 
 ******************************************
 Gaussian 16:  ES64L-G16RevA.03 25-Dec-2016
                11-Sep-2024 
 ******************************************
 %nprocshared=12
 Will use up to   12 processors via shared memory.
 %chk=c2h6_e.chk
 ----------------------------
 #p opt freq hf/6-311++g(d,p)
 ----------------------------
 1/18=20,19=15,38=1/1,3;
 2/9=110,12=2,17=6,18=5,40=1/2;
 3/5=4,6=6,7=1111,11=9,25=1,30=1,71=1/1,2,3;
 4//1;
 5/5=2,38=5/2;
 6/7=2,8=2,9=2,10=2,28=1/1;
 7//1,2,3,16;
 1/18=20,19=15/3(2);
 2/9=110/2;
 99//99;
 2/9=110/2;
 3/5=4,6=6,7=1111,11=9,25=1,30=1,71=1/1,2,3;
 4/5=5,16=3,69=1/1;
 5/5=2,38=5/2;
 7//1,2,3,16;
 1/18=20,19=15/3(-5);
 2/9=110/2;
 6/7=2,8=2,9=2,10=2,19=2,28=1/1;
 99/9=1/99;
 Leave Link    1 at Wed Sep 11 13:50:31 2024, MaxMem=           0 cpu:               0.7 elap:               0.1
 (Enter /usr/local/g16/l101.exe)
 -------------------
 Title Card Required
 -------------------
 Symbolic Z-matrix:
 Charge =  0 Multiplicity = 1
 C
 H                    1    B1
 H                    1    B2       2    A1
 H                    1    B3       3    A2       2    D1       0
 C                    1    B4       4    A3       3    D2       0
 H                    5    B5       1    A4       4    D3       0
 H                    5    B6       1    A5       4    D4       0
 H                    5    B7       1    A6       4    D5       0
       Variables:
  B1                    1.07                     
  B2                    1.07                     
  B3                    1.07                     
  B4                    1.54                     
  B5                    1.07                     
  B6                    1.07                     
  B7                    1.07                     
  A1                  109.4712                   
  A2                  109.47122                  
  A3                  109.47122                  
  A4                  109.4712                   
  A5                  109.4712                   
  A6                  109.47123                  
  D1                 -120.                       
  D2                  120.00003                  
  D3                  179.9889                   
  D4                  -60.01108                  
  D5                   59.98891                  
 
     6 tetrahedral angles replaced.
 ITRead=  0  0  0  0  0  0  0  0
 MicOpt= -1 -1 -1 -1 -1 -1 -1 -1
 NAtoms=      8 NQM=        8 NQMF=       0 NMMI=      0 NMMIF=      0
                NMic=       0 NMicF=      0.
                    Isotopes and Nuclear Properties:
 (Nuclear quadrupole moments (NQMom) in fm**2, nuclear magnetic moments (NMagM)
  in nuclear magnetons)

  Atom         1           2           3           4           5           6           7           8
 IAtWgt=          12           1           1           1          12           1           1           1
 AtmWgt=  12.0000000   1.0078250   1.0078250   1.0078250  12.0000000   1.0078250   1.0078250   1.0078250
 NucSpn=           0           1           1           1           0           1           1           1
 AtZEff=  -0.0000000  -0.0000000  -0.0000000  -0.0000000  -0.0000000  -0.0000000  -0.0000000  -0.0000000
 NQMom=    0.0000000   0.0000000   0.0000000   0.0000000   0.0000000   0.0000000   0.0000000   0.0000000
 NMagM=    0.0000000   2.7928460   2.7928460   2.7928460   0.0000000   2.7928460   2.7928460   2.7928460
 AtZNuc=   6.0000000   1.0000000   1.0000000   1.0000000   6.0000000   1.0000000   1.0000000   1.0000000
 Leave Link  101 at Wed Sep 11 13:50:31 2024, MaxMem=   104857600 cpu:               1.7 elap:               0.2
 (Enter /usr/local/g16/l103.exe)

 GradGradGradGradGradGradGradGradGradGradGradGradGradGradGradGradGradGrad
 Berny optimization.
 Initialization pass.
                           ----------------------------
                           !    Initial Parameters    !
                           ! (Angstroms and Degrees)  !
 --------------------------                            --------------------------
 ! Name  Definition              Value          Derivative Info.                !
 --------------------------------------------------------------------------------
 ! R1    R(1,2)                  1.07           estimate D2E/DX2                !
 ! R2    R(1,3)                  1.07           estimate D2E/DX2                !
 ! R3    R(1,4)                  1.07           estimate D2E/DX2                !
 ! R4    R(1,5)                  1.54           estimate D2E/DX2                !
 ! R5    R(5,6)                  1.07           estimate D2E/DX2                !
 ! R6    R(5,7)                  1.07           estimate D2E/DX2                !
 ! R7    R(5,8)                  1.07           estimate D2E/DX2                !
 ! A1    A(2,1,3)              109.4712         estimate D2E/DX2                !
 ! A2    A(2,1,4)              109.4712         estimate D2E/DX2                !
 ! A3    A(2,1,5)              109.4712         estimate D2E/DX2                !
 ! A4    A(3,1,4)              109.4712         estimate D2E/DX2                !
 ! A5    A(3,1,5)              109.4712         estimate D2E/DX2                !
 ! A6    A(4,1,5)              109.4712         estimate D2E/DX2                !
 ! A7    A(1,5,6)              109.4712         estimate D2E/DX2                !
 ! A8    A(1,5,7)              109.4712         estimate D2E/DX2                !
 ! A9    A(1,5,8)              109.4712         estimate D2E/DX2                !
 ! A10   A(6,5,7)              109.4712         estimate D2E/DX2                !
 ! A11   A(6,5,8)              109.4712         estimate D2E/DX2                !
 ! A12   A(7,5,8)              109.4712         estimate D2E/DX2                !
 ! D1    D(2,1,5,6)             59.9889         estimate D2E/DX2                !
 ! D2    D(2,1,5,7)            179.9889         estimate D2E/DX2                !
 ! D3    D(2,1,5,8)            -60.0111         estimate D2E/DX2                !
 ! D4    D(3,1,5,6)            -60.0111         estimate D2E/DX2                !
 ! D5    D(3,1,5,7)             59.9889         estimate D2E/DX2                !
 ! D6    D(3,1,5,8)            179.9889         estimate D2E/DX2                !
 ! D7    D(4,1,5,6)            179.9889         estimate D2E/DX2                !
 ! D8    D(4,1,5,7)            -60.0111         estimate D2E/DX2                !
 ! D9    D(4,1,5,8)             59.9889         estimate D2E/DX2                !
 --------------------------------------------------------------------------------
 Trust Radius=3.00D-01 FncErr=1.00D-07 GrdErr=1.00D-07 EigMax=2.50D+02 EigMin=1.00D-04
 Number of steps in this run=     38 maximum allowed number of steps=    100.
 GradGradGradGradGradGradGradGradGradGradGradGradGradGradGradGradGradGrad

 Leave Link  103 at Wed Sep 11 13:50:31 2024, MaxMem=   104857600 cpu:               0.5 elap:               0.1
 (Enter /usr/local/g16/l202.exe)
                          Input orientation:                          
 ---------------------------------------------------------------------
 Center     Atomic      Atomic             Coordinates (Angstroms)
 Number     Number       Type             X           Y           Z
 ---------------------------------------------------------------------
      1          6           0        0.000000    0.000000    0.000000
      2          1           0        0.000000    0.000000    1.070000
      3          1           0        1.008806    0.000000   -0.356667
      4          1           0       -0.504403   -0.873651   -0.356667
      5          6           0       -0.725963    1.257405   -0.513333
      6          1           0       -0.221673    2.131056   -0.156506
      7          1           0       -0.725795    1.257503   -1.583333
      8          1           0       -1.734825    1.257307   -0.156825
 ---------------------------------------------------------------------
                    Distance matrix (angstroms):
                    1          2          3          4          5
     1  C    0.000000
     2  H    1.070000   0.000000
     3  H    1.070000   1.747303   0.000000
     4  H    1.070000   1.747303   1.747303   0.000000
     5  C    1.540000   2.148263   2.148263   2.148263   0.000000
     6  H    2.148263   2.468776   2.468915   3.024610   1.070000
     7  H    2.148263   3.024610   2.468777   2.468915   1.070000
     8  H    2.148263   2.468914   3.024610   2.468777   1.070000
                    6          7          8
     6  H    0.000000
     7  H    1.747303   0.000000
     8  H    1.747303   1.747303   0.000000
 This structure is nearly, but not quite of a higher symmetry.
 Consider Symm=Loose if the higher symmetry is desired.
 Stoichiometry    C2H6
 Framework group  C1[X(C2H6)]
 Deg. of freedom    18
 Full point group                 C1      NOp   1
 Largest Abelian subgroup         C1      NOp   1
 Largest concise Abelian subgroup C1      NOp   1
                         Standard orientation:                         
 ---------------------------------------------------------------------
 Center     Atomic      Atomic             Coordinates (Angstroms)
 Number     Number       Type             X           Y           Z
 ---------------------------------------------------------------------
      1          6           0        0.670198    0.109444    0.362983
      2          1           0        0.732283    1.123332    0.699252
      3          1           0        1.477340   -0.093332   -0.309552
      4          1           0        0.732285   -0.549584    1.203654
      5          6           0       -0.670198   -0.109444   -0.362983
      6          1           0       -0.732368    0.549720   -1.203541
      7          1           0       -0.732200   -1.123281   -0.699421
      8          1           0       -1.477340    0.093145    0.309609
 ---------------------------------------------------------------------
 Rotational constants (GHZ):          82.1231828          20.2293849          20.2293845
 Leave Link  202 at Wed Sep 11 13:50:32 2024, MaxMem=   104857600 cpu:               0.9 elap:               0.1
 (Enter /usr/local/g16/l301.exe)
 Standard basis: 6-311++G(d,p) (5D, 7F)
 Ernie: Thresh=  0.10000D-02 Tol=  0.10000D-05 Strict=F.
 There are    88 symmetry adapted cartesian basis functions of A   symmetry.
 There are    86 symmetry adapted basis functions of A   symmetry.
    86 basis functions,   126 primitive gaussians,    88 cartesian basis functions
     9 alpha electrons        9 beta electrons
       nuclear repulsion energy        42.6703217899 Hartrees.
 IExCor=    0 DFT=F Ex=HF Corr=None ExCW=0 ScaHFX=  1.000000
 ScaDFX=  1.000000  1.000000  1.000000  1.000000 ScalE2=  1.000000  1.000000
 IRadAn=      5 IRanWt=     -1 IRanGd=            0 ICorTp=0 IEmpDi=  4
 NAtoms=    8 NActive=    8 NUniq=    8 SFac= 1.00D+00 NAtFMM=   60 NAOKFM=F Big=F
 Integral buffers will be    131072 words long.
 Raffenetti 1 integral format.
 Two-electron integral symmetry is turned on.
 Leave Link  301 at Wed Sep 11 13:50:32 2024, MaxMem=   104857600 cpu:               0.8 elap:               0.1
 (Enter /usr/local/g16/l302.exe)
 NPDir=0 NMtPBC=     1 NCelOv=     1 NCel=       1 NClECP=     1 NCelD=      1
         NCelK=      1 NCelE2=     1 NClLst=     1 CellRange=     0.0.
 One-electron integrals computed using PRISM.
 One-electron integral symmetry used in STVInt
 NBasis=    86 RedAO= T EigKep=  1.52D-04  NBF=    86
 NBsUse=    86 1.00D-06 EigRej= -1.00D+00 NBFU=    86
 Leave Link  302 at Wed Sep 11 13:50:32 2024, MaxMem=   104857600 cpu:               5.9 elap:               0.6
 (Enter /usr/local/g16/l303.exe)
 DipDrv:  MaxL=1.
 Leave Link  303 at Wed Sep 11 13:50:32 2024, MaxMem=   104857600 cpu:               1.7 elap:               0.2
 (Enter /usr/local/g16/l401.exe)
 ExpMin= 3.60D-02 ExpMax= 4.56D+03 ExpMxC= 6.82D+02 IAcc=3 IRadAn=         5 AccDes= 0.00D+00
 Harris functional with IExCor=  205 and IRadAn=       5 diagonalized for initial guess.
 HarFok:  IExCor=  205 AccDes= 0.00D+00 IRadAn=         5 IDoV= 1 UseB2=F ITyADJ=14
 ICtDFT=  3500011 ScaDFX=  1.000000  1.000000  1.000000  1.000000
 FoFCou: FMM=F IPFlag=           0 FMFlag=      100000 FMFlg1=           0
         NFxFlg=           0 DoJE=T BraDBF=F KetDBF=T FulRan=T
         wScrn=  0.000000 ICntrl=       500 IOpCl=  0 I1Cent=   200000004 NGrid=           0
         NMat0=    1 NMatS0=      1 NMatT0=    0 NMatD0=    1 NMtDS0=    0 NMtDT0=    0
 Petite list used in FoFCou.
 Harris En= -79.5417803132130    
 JPrj=0 DoOrth=F DoCkMO=F.
 Leave Link  401 at Wed Sep 11 13:50:33 2024, MaxMem=   104857600 cpu:               6.6 elap:               0.6
 (Enter /usr/local/g16/l502.exe)
 Keep R1 ints in memory in canonical form, NReq=9532581.
 FoFCou: FMM=F IPFlag=           0 FMFlag=           0 FMFlg1=           0
         NFxFlg=           0 DoJE=F BraDBF=F KetDBF=F FulRan=T
         wScrn=  0.000000 ICntrl=       600 IOpCl=  0 I1Cent=           0 NGrid=           0
         NMat0=    1 NMatS0=   3741 NMatT0=    0 NMatD0=    1 NMtDS0=    0 NMtDT0=    0
 Symmetry not used in FoFCou.
 Two-electron integral symmetry not used.
 Closed shell SCF:
 Using DIIS extrapolation, IDIIS=  1040.
 NGot=   104857600 LenX=    97840569 LenY=    97832384
 Requested convergence on RMS density matrix=1.00D-08 within 128 cycles.
 Requested convergence on MAX density matrix=1.00D-06.
 Requested convergence on             energy=1.00D-06.
 No special actions if energy rises.

 Cycle   1  Pass 1  IDiag  1:
 E= -79.0453701977380    
 DIIS: error= 6.57D-02 at cycle   1 NSaved=   1.
 NSaved= 1 IEnMin= 1 EnMin= -79.0453701977380     IErMin= 1 ErrMin= 6.57D-02
 ErrMax= 6.57D-02  0.00D+00 EMaxC= 1.00D-01 BMatC= 2.78D-01 BMatP= 2.78D-01
 IDIUse=3 WtCom= 3.43D-01 WtEn= 6.57D-01
 Coeff-Com:  0.100D+01
 Coeff-En:   0.100D+01
 Coeff:      0.100D+01
 Gap=     0.494 Goal=   None    Shift=    0.000
 GapD=    0.494 DampG=2.000 DampE=0.500 DampFc=1.0000 IDamp=-1.
 RMSDP=4.19D-03 MaxDP=1.08D-01              OVMax= 1.43D-01

 Cycle   2  Pass 1  IDiag  1:
 E= -79.2130158005964     Delta-E=       -0.167645602858 Rises=F Damp=F
 DIIS: error= 3.27D-02 at cycle   2 NSaved=   2.
 NSaved= 2 IEnMin= 2 EnMin= -79.2130158005964     IErMin= 2 ErrMin= 3.27D-02
 ErrMax= 3.27D-02  0.00D+00 EMaxC= 1.00D-01 BMatC= 3.88D-02 BMatP= 2.78D-01
 IDIUse=3 WtCom= 6.73D-01 WtEn= 3.27D-01
 Coeff-Com:  0.231D+00 0.769D+00
 Coeff-En:   0.000D+00 0.100D+01
 Coeff:      0.155D+00 0.845D+00
 Gap=     0.580 Goal=   None    Shift=    0.000
 RMSDP=1.80D-03 MaxDP=4.34D-02 DE=-1.68D-01 OVMax= 6.76D-02

 Cycle   3  Pass 1  IDiag  1:
 E= -79.2478877370399     Delta-E=       -0.034871936444 Rises=F Damp=F
 DIIS: error= 7.57D-03 at cycle   3 NSaved=   3.
 NSaved= 3 IEnMin= 3 EnMin= -79.2478877370399     IErMin= 3 ErrMin= 7.57D-03
 ErrMax= 7.57D-03  0.00D+00 EMaxC= 1.00D-01 BMatC= 2.17D-03 BMatP= 3.88D-02
 IDIUse=3 WtCom= 9.24D-01 WtEn= 7.57D-02
 Coeff-Com: -0.241D-01 0.149D+00 0.875D+00
 Coeff-En:   0.000D+00 0.000D+00 0.100D+01
 Coeff:     -0.222D-01 0.138D+00 0.884D+00
 Gap=     0.538 Goal=   None    Shift=    0.000
 RMSDP=3.31D-04 MaxDP=6.24D-03 DE=-3.49D-02 OVMax= 1.24D-02

 Cycle   4  Pass 1  IDiag  1:
 E= -79.2500771211565     Delta-E=       -0.002189384117 Rises=F Damp=F
 DIIS: error= 1.24D-03 at cycle   4 NSaved=   4.
 NSaved= 4 IEnMin= 4 EnMin= -79.2500771211565     IErMin= 4 ErrMin= 1.24D-03
 ErrMax= 1.24D-03  0.00D+00 EMaxC= 1.00D-01 BMatC= 1.96D-05 BMatP= 2.17D-03
 IDIUse=3 WtCom= 9.88D-01 WtEn= 1.24D-02
 Coeff-Com:  0.159D-02-0.400D-01-0.138D+00 0.118D+01
 Coeff-En:   0.000D+00 0.000D+00 0.000D+00 0.100D+01
 Coeff:      0.157D-02-0.395D-01-0.136D+00 0.117D+01
 Gap=     0.540 Goal=   None    Shift=    0.000
 RMSDP=9.80D-05 MaxDP=9.83D-04 DE=-2.19D-03 OVMax= 3.68D-03

 Cycle   5  Pass 1  IDiag  1:
 E= -79.2501229687951     Delta-E=       -0.000045847639 Rises=F Damp=F
 DIIS: error= 1.82D-04 at cycle   5 NSaved=   5.
 NSaved= 5 IEnMin= 5 EnMin= -79.2501229687951     IErMin= 5 ErrMin= 1.82D-04
 ErrMax= 1.82D-04  0.00D+00 EMaxC= 1.00D-01 BMatC= 9.62D-07 BMatP= 1.96D-05
 IDIUse=3 WtCom= 9.98D-01 WtEn= 1.82D-03
 Coeff-Com:  0.108D-02-0.436D-02-0.315D-01-0.163D+00 0.120D+01
 Coeff-En:   0.000D+00 0.000D+00 0.000D+00 0.000D+00 0.100D+01
 Coeff:      0.108D-02-0.436D-02-0.314D-01-0.163D+00 0.120D+01
 Gap=     0.539 Goal=   None    Shift=    0.000
 RMSDP=3.04D-05 MaxDP=2.66D-04 DE=-4.58D-05 OVMax= 9.89D-04

 Cycle   6  Pass 1  IDiag  1:
 E= -79.2501255818465     Delta-E=       -0.000002613051 Rises=F Damp=F
 DIIS: error= 1.40D-05 at cycle   6 NSaved=   6.
 NSaved= 6 IEnMin= 6 EnMin= -79.2501255818465     IErMin= 6 ErrMin= 1.40D-05
 ErrMax= 1.40D-05  0.00D+00 EMaxC= 1.00D-01 BMatC= 6.60D-09 BMatP= 9.62D-07
 IDIUse=1 WtCom= 1.00D+00 WtEn= 0.00D+00
 Coeff-Com: -0.120D-03 0.888D-03 0.563D-02 0.600D-02-0.159D+00 0.115D+01
 Coeff:     -0.120D-03 0.888D-03 0.563D-02 0.600D-02-0.159D+00 0.115D+01
 Gap=     0.539 Goal=   None    Shift=    0.000
 RMSDP=2.94D-06 MaxDP=2.40D-05 DE=-2.61D-06 OVMax= 8.32D-05

 Cycle   7  Pass 1  IDiag  1:
 E= -79.2501255979730     Delta-E=       -0.000000016127 Rises=F Damp=F
 DIIS: error= 1.24D-06 at cycle   7 NSaved=   7.
 NSaved= 7 IEnMin= 7 EnMin= -79.2501255979730     IErMin= 7 ErrMin= 1.24D-06
 ErrMax= 1.24D-06  0.00D+00 EMaxC= 1.00D-01 BMatC= 7.44D-11 BMatP= 6.60D-09
 IDIUse=1 WtCom= 1.00D+00 WtEn= 0.00D+00
 Coeff-Com:  0.122D-04-0.134D-03-0.843D-03 0.548D-03 0.203D-01-0.242D+00
 Coeff-Com:  0.122D+01
 Coeff:      0.122D-04-0.134D-03-0.843D-03 0.548D-03 0.203D-01-0.242D+00
 Coeff:      0.122D+01
 Gap=     0.539 Goal=   None    Shift=    0.000
 RMSDP=3.94D-07 MaxDP=2.61D-06 DE=-1.61D-08 OVMax= 8.16D-06

 Cycle   8  Pass 1  IDiag  1:
 E= -79.2501255981601     Delta-E=       -0.000000000187 Rises=F Damp=F
 DIIS: error= 1.09D-07 at cycle   8 NSaved=   8.
 NSaved= 8 IEnMin= 8 EnMin= -79.2501255981601     IErMin= 8 ErrMin= 1.09D-07
 ErrMax= 1.09D-07  0.00D+00 EMaxC= 1.00D-01 BMatC= 6.45D-13 BMatP= 7.44D-11
 IDIUse=1 WtCom= 1.00D+00 WtEn= 0.00D+00
 Coeff-Com: -0.108D-05 0.156D-04 0.109D-03-0.220D-03-0.217D-02 0.344D-01
 Coeff-Com: -0.220D+00 0.119D+01
 Coeff:     -0.108D-05 0.156D-04 0.109D-03-0.220D-03-0.217D-02 0.344D-01
 Coeff:     -0.220D+00 0.119D+01
 Gap=     0.539 Goal=   None    Shift=    0.000
 RMSDP=3.01D-08 MaxDP=2.72D-07 DE=-1.87D-10 OVMax= 6.34D-07

 Cycle   9  Pass 1  IDiag  1:
 E= -79.2501255981614     Delta-E=       -0.000000000001 Rises=F Damp=F
 DIIS: error= 8.91D-09 at cycle   9 NSaved=   9.
 NSaved= 9 IEnMin= 9 EnMin= -79.2501255981614     IErMin= 9 ErrMin= 8.91D-09
 ErrMax= 8.91D-09  0.00D+00 EMaxC= 1.00D-01 BMatC= 3.08D-15 BMatP= 6.45D-13
 IDIUse=1 WtCom= 1.00D+00 WtEn= 0.00D+00
 Coeff-Com:  0.630D-07-0.118D-05-0.895D-05 0.327D-04 0.130D-03-0.279D-02
 Coeff-Com:  0.201D-01-0.158D+00 0.114D+01
 Coeff:      0.630D-07-0.118D-05-0.895D-05 0.327D-04 0.130D-03-0.279D-02
 Coeff:      0.201D-01-0.158D+00 0.114D+01
 Gap=     0.539 Goal=   None    Shift=    0.000
 RMSDP=2.88D-09 MaxDP=4.49D-08 DE=-1.36D-12 OVMax= 3.11D-08

 SCF Done:  E(RHF) =  -79.2501255982     A.U. after    9 cycles
            NFock=  9  Conv=0.29D-08     -V/T= 1.9988
 KE= 7.934402173090D+01 PE=-2.692395637843D+02 EE= 6.797509466534D+01
 Leave Link  502 at Wed Sep 11 13:50:35 2024, MaxMem=   104857600 cpu:              19.7 elap:               1.9
 (Enter /usr/local/g16/l601.exe)
 Copying SCF densities to generalized density rwf, IOpCl= 0 IROHF=0.

 **********************************************************************

            Population analysis using the SCF density.

 **********************************************************************

 Orbital symmetries:
       Occupied  (A) (A) (A) (A) (A) (A) (A) (A) (A)
       Virtual   (A) (A) (A) (A) (A) (A) (A) (A) (A) (A) (A) (A)
                 (A) (A) (A) (A) (A) (A) (A) (A) (A) (A) (A) (A)
                 (A) (A) (A) (A) (A) (A) (A) (A) (A) (A) (A) (A)
                 (A) (A) (A) (A) (A) (A) (A) (A) (A) (A) (A) (A)
                 (A) (A) (A) (A) (A) (A) (A) (A) (A) (A) (A) (A)
                 (A) (A) (A) (A) (A) (A) (A) (A) (A) (A) (A) (A)
                 (A) (A) (A) (A) (A)
 The electronic state is 1-A.
 Alpha  occ. eigenvalues --  -11.20353 -11.20295  -1.02197  -0.84655  -0.60538
 Alpha  occ. eigenvalues --   -0.60538  -0.49637  -0.49528  -0.49528
 Alpha virt. eigenvalues --    0.04420   0.06016   0.06746   0.06746   0.09943
 Alpha virt. eigenvalues --    0.09943   0.14361   0.14852   0.14852   0.17485
 Alpha virt. eigenvalues --    0.19572   0.20312   0.20312   0.20761   0.30916
 Alpha virt. eigenvalues --    0.30916   0.32837   0.32837   0.38547   0.41569
 Alpha virt. eigenvalues --    0.44214   0.58606   0.58606   0.58651   0.58651
 Alpha virt. eigenvalues --    0.60743   0.87740   0.87834   0.87834   0.88567
 Alpha virt. eigenvalues --    0.88567   0.92900   0.93746   1.06122   1.08379
 Alpha virt. eigenvalues --    1.19824   1.19824   1.53130   1.53130   1.73588
 Alpha virt. eigenvalues --    1.74668   1.79731   1.79731   1.84108   1.84210
 Alpha virt. eigenvalues --    1.84210   1.99572   1.99572   2.03669   2.16581
 Alpha virt. eigenvalues --    2.16581   2.37493   2.40877   2.45341   2.45341
 Alpha virt. eigenvalues --    2.69763   2.69763   2.76364   2.76364   2.83303
 Alpha virt. eigenvalues --    2.90383   2.95268   2.95268   3.02785   3.02785
 Alpha virt. eigenvalues --    3.03172   3.03172   3.15785   3.24788   3.56964
 Alpha virt. eigenvalues --    4.26727   4.26727   4.28932   4.28932   4.66173
 Alpha virt. eigenvalues --   25.12675  25.24483
          Condensed to atoms (all electrons):
               1          2          3          4          5          6
     1  C    5.000946   0.423982   0.423981   0.423981   0.217686  -0.050866
     2  H    0.423982   0.603146  -0.042560  -0.042560  -0.050866  -0.005181
     3  H    0.423981  -0.042560   0.603146  -0.042560  -0.050866  -0.005177
     4  H    0.423981  -0.042560  -0.042560   0.603146  -0.050866   0.006556
     5  C    0.217686  -0.050866  -0.050866  -0.050866   5.000946   0.423981
     6  H   -0.050866  -0.005181  -0.005177   0.006556   0.423981   0.603146
     7  H   -0.050866   0.006556  -0.005181  -0.005177   0.423981  -0.042560
     8  H   -0.050866  -0.005177   0.006556  -0.005181   0.423981  -0.042560
               7          8
     1  C   -0.050866  -0.050866
     2  H    0.006556  -0.005177
     3  H   -0.005181   0.006556
     4  H   -0.005177  -0.005181
     5  C    0.423981   0.423981
     6  H   -0.042560  -0.042560
     7  H    0.603146  -0.042560
     8  H   -0.042560   0.603146
 Mulliken charges:
               1
     1  C   -0.337978
     2  H    0.112659
     3  H    0.112659
     4  H    0.112659
     5  C   -0.337978
     6  H    0.112659
     7  H    0.112659
     8  H    0.112659
 Sum of Mulliken charges =  -0.00000
 Mulliken charges with hydrogens summed into heavy atoms:
               1
     1  C   -0.000000
     5  C    0.000000
 Electronic spatial extent (au):  <R**2>=            108.2061
 Charge=             -0.0000 electrons
 Dipole moment (field-independent basis, Debye):
    X=             -0.0000    Y=              0.0000    Z=              0.0000  Tot=              0.0000
 Quadrupole moment (field-independent basis, Debye-Ang):
   XX=            -15.6169   YY=            -14.8086   ZZ=            -15.0301
   XY=             -0.1356   XZ=             -0.4498   YZ=             -0.0734
 Traceless Quadrupole moment (field-independent basis, Debye-Ang):
   XX=             -0.4650   YY=              0.3433   ZZ=              0.1218
   XY=             -0.1356   XZ=             -0.4498   YZ=             -0.0734
 Octapole moment (field-independent basis, Debye-Ang**2):
  XXX=              0.0000  YYY=              0.0002  ZZZ=              0.0002  XYY=              0.0001
  XXY=             -0.0001  XXZ=              0.0000  XZZ=             -0.0001  YZZ=             -0.0001
  YYZ=             -0.0002  XYZ=              0.0001
 Hexadecapole moment (field-independent basis, Debye-Ang**3):
 XXXX=            -76.7349 YYYY=            -29.5988 ZZZZ=            -43.2547 XXXY=             -4.4098
 XXXZ=            -14.6264 YYYX=             -3.1669 YYYZ=             -1.2816 ZZZX=            -12.5868
 ZZZY=             -3.2473 XXYY=            -18.3639 XXZZ=            -19.8990 YYZZ=            -11.5887
 XXYZ=             -0.5094 YYXZ=             -3.6396 ZZXY=             -1.7258
 N-N= 4.267032178990D+01 E-N=-2.692395635384D+02  KE= 7.934402173090D+01
 No NMR shielding tensors so no spin-rotation constants.
 Leave Link  601 at Wed Sep 11 13:50:35 2024, MaxMem=   104857600 cpu:               4.1 elap:               0.4
 (Enter /usr/local/g16/l701.exe)
 ... and contract with generalized density number  0.
 Compute integral first derivatives.
 Leave Link  701 at Wed Sep 11 13:50:36 2024, MaxMem=   104857600 cpu:               3.5 elap:               0.3
 (Enter /usr/local/g16/l702.exe)
 L702 exits ... SP integral derivatives will be done elsewhere.
 Leave Link  702 at Wed Sep 11 13:50:36 2024, MaxMem=   104857600 cpu:               0.3 elap:               0.0
 (Enter /usr/local/g16/l703.exe)
 Integral derivatives from FoFJK, PRISM(SPDF).
 Compute integral first derivatives, UseDBF=F ICtDFT=           0.
 Calling FoFJK, ICntrl=      2127 FMM=F ISym2X=0 I1Cent= 0 IOpClX= 0 NMat=1 NMatS=1 NMatT=0.
 FoFJK:  IHMeth= 1 ICntrl=    2127 DoSepK=F KAlg= 0 I1Cent=           0 FoldK=F
 IRaf=         0 NMat=       1 IRICut=       1 DoRegI=T DoRafI=F ISym2E= 0 IDoP0=0 IntGTp=1.
 FoFCou: FMM=F IPFlag=           0 FMFlag=      100000 FMFlg1=         800
         NFxFlg=           0 DoJE=F BraDBF=F KetDBF=F FulRan=T
         wScrn=  0.000000 ICntrl=      2127 IOpCl=  0 I1Cent=           0 NGrid=           0
         NMat0=    1 NMatS0=      1 NMatT0=    0 NMatD0=    1 NMtDS0=    0 NMtDT0=    0
 Symmetry not used in FoFCou.
 Leave Link  703 at Wed Sep 11 13:50:36 2024, MaxMem=   104857600 cpu:               4.4 elap:               0.4
 (Enter /usr/local/g16/l716.exe)
 Dipole        =-2.63598281D-08 2.89447045D-08 3.92212370D-08
 ***** Axes restored to original set *****
 -------------------------------------------------------------------
 Center     Atomic                   Forces (Hartrees/Bohr)
 Number     Number              X              Y              Z
 -------------------------------------------------------------------
      1        6          -0.011164012    0.019336556   -0.007894048
      2        1           0.002127299   -0.003686211    0.011221195
      3        1           0.011288985   -0.003685326   -0.001733475
      4        1          -0.002451944   -0.011619241   -0.001734782
      5        6           0.011163990   -0.019336561    0.007894062
      6        1           0.002451864    0.011619241    0.001734888
      7        1          -0.002127142    0.003686274   -0.011221188
      8        1          -0.011289040    0.003685268    0.001733348
 -------------------------------------------------------------------
 Cartesian Forces:  Max     0.019336561 RMS     0.009096420
 Leave Link  716 at Wed Sep 11 13:50:36 2024, MaxMem=   104857600 cpu:               0.4 elap:               0.0
 (Enter /usr/local/g16/l103.exe)

 GradGradGradGradGradGradGradGradGradGradGradGradGradGradGradGradGradGrad
 Berny optimization.
 FormGI is forming the generalized inverse of G from B-inverse, IUseBI=4.
 Internal  Forces:  Max     0.011221195 RMS     0.005909549
 Search for a local minimum.
 Step number   1 out of a maximum of   38
 All quantities printed in internal units (Hartrees-Bohrs-Radians)
 RMS Force = .59095D-02 SwitMx=.10000D-02 MixMth= 1
 Mixed Optimization -- RFO/linear search
 Second derivative matrix not updated -- first step.
 ITU=  0
     Eigenvalues ---    0.00237   0.05720   0.05720   0.05720   0.05720
     Eigenvalues ---    0.16000   0.16000   0.16000   0.16000   0.16000
     Eigenvalues ---    0.16000   0.28519   0.37230   0.37230   0.37230
     Eigenvalues ---    0.37230   0.37230   0.37230
 RFO step:  Lambda=-3.37155839D-03 EMin= 2.36824211D-03
 Linear search not attempted -- first point.
 Iteration  1 RMS(Cart)=  0.02769878 RMS(Int)=  0.00034502
 Iteration  2 RMS(Cart)=  0.00030350 RMS(Int)=  0.00022939
 Iteration  3 RMS(Cart)=  0.00000014 RMS(Int)=  0.00022939
 ITry= 1 IFail=0 DXMaxC= 5.40D-02 DCOld= 1.00D+10 DXMaxT= 3.00D-01 DXLimC= 3.00D+00 Rises=F
 Variable       Old X    -DE/DX   Delta X   Delta X   Delta X     New X
                                 (Linear)    (Quad)   (Total)
    R1        2.02201   0.01122   0.00000   0.02987   0.02987   2.05188
    R2        2.02201   0.01122   0.00000   0.02987   0.02987   2.05188
    R3        2.02201   0.01122   0.00000   0.02987   0.02987   2.05188
    R4        2.91018  -0.00042   0.00000  -0.00147  -0.00147   2.90871
    R5        2.02201   0.01122   0.00000   0.02987   0.02987   2.05188
    R6        2.02201   0.01122   0.00000   0.02987   0.02987   2.05188
    R7        2.02201   0.01122   0.00000   0.02987   0.02987   2.05188
    A1        1.91063  -0.00430   0.00000  -0.02634  -0.02668   1.88395
    A2        1.91063  -0.00430   0.00000  -0.02634  -0.02668   1.88395
    A3        1.91063   0.00430   0.00000   0.02634   0.02598   1.93661
    A4        1.91063  -0.00430   0.00000  -0.02634  -0.02668   1.88395
    A5        1.91063   0.00430   0.00000   0.02634   0.02598   1.93661
    A6        1.91063   0.00430   0.00000   0.02634   0.02598   1.93661
    A7        1.91063   0.00430   0.00000   0.02634   0.02598   1.93661
    A8        1.91063   0.00430   0.00000   0.02634   0.02598   1.93661
    A9        1.91063   0.00430   0.00000   0.02634   0.02598   1.93661
   A10        1.91063  -0.00430   0.00000  -0.02634  -0.02668   1.88395
   A11        1.91063  -0.00430   0.00000  -0.02634  -0.02668   1.88395
   A12        1.91063  -0.00430   0.00000  -0.02634  -0.02668   1.88395
    D1        1.04700   0.00000   0.00000   0.00009   0.00009   1.04709
    D2        3.14140   0.00000   0.00000   0.00009   0.00009   3.14149
    D3       -1.04739   0.00000   0.00000   0.00009   0.00009  -1.04730
    D4       -1.04739   0.00000   0.00000   0.00009   0.00009  -1.04730
    D5        1.04700   0.00000   0.00000   0.00009   0.00009   1.04709
    D6        3.14140   0.00000   0.00000   0.00009   0.00009   3.14149
    D7        3.14140   0.00000   0.00000   0.00009   0.00009   3.14149
    D8       -1.04739   0.00000   0.00000   0.00009   0.00009  -1.04730
    D9        1.04700   0.00000   0.00000   0.00009   0.00009   1.04709
         Item               Value     Threshold  Converged?
 Maximum Force            0.011221     0.000450     NO 
 RMS     Force            0.005910     0.000300     NO 
 Maximum Displacement     0.053995     0.001800     NO 
 RMS     Displacement     0.027793     0.001200     NO 
 Predicted change in Energy=-1.708707D-03
 Lowest energy point so far.  Saving SCF results.
 GradGradGradGradGradGradGradGradGradGradGradGradGradGradGradGradGradGrad

 Leave Link  103 at Wed Sep 11 13:50:37 2024, MaxMem=   104857600 cpu:              12.3 elap:               1.2
 (Enter /usr/local/g16/l202.exe)
                          Input orientation:                          
 ---------------------------------------------------------------------
 Center     Atomic      Atomic             Coordinates (Angstroms)
 Number     Number       Type             X           Y           Z
 ---------------------------------------------------------------------
      1          6           0       -0.000183    0.000317   -0.000129
      2          1           0        0.013880   -0.024131    1.085311
      3          1           0        1.027893   -0.024085   -0.348610
      4          1           0       -0.493035   -0.902225   -0.348684
      5          6           0       -0.725780    1.257088   -0.513203
      6          1           0       -0.232989    2.159629   -0.164562
      7          1           0       -0.739752    1.281589   -1.598643
      8          1           0       -1.753887    1.281437   -0.164808
 ---------------------------------------------------------------------
                    Distance matrix (angstroms):
                    1          2          3          4          5
     1  C    0.000000
     2  H    1.085806   0.000000
     3  H    1.085806   1.756232   0.000000
     4  H    1.085806   1.756232   1.756232   0.000000
     5  C    1.539223   2.178042   2.178042   2.178042   0.000000
     6  H    2.178042   2.528228   2.528301   3.078388   1.085806
     7  H    2.178042   3.078388   2.528228   2.528301   1.085806
     8  H    2.178042   2.528301   3.078388   2.528228   1.085806
                    6          7          8
     6  H    0.000000
     7  H    1.756232   0.000000
     8  H    1.756232   1.756232   0.000000
 This structure is nearly, but not quite of a higher symmetry.
 Consider Symm=Loose if the higher symmetry is desired.
 Stoichiometry    C2H6
 Framework group  C1[X(C2H6)]
 Deg. of freedom    18
 Full point group                 C1      NOp   1
 RotChk:  IX=0 Diff= 1.74D+00
 Largest Abelian subgroup         C1      NOp   1
 Largest concise Abelian subgroup C1      NOp   1
                         Standard orientation:                         
 ---------------------------------------------------------------------
 Center     Atomic      Atomic             Coordinates (Angstroms)
 Number     Number       Type             X           Y           Z
 ---------------------------------------------------------------------
      1          6           0        0.541951   -0.345299   -0.423509
      2          1           0        1.235686    0.381895   -0.834479
      3          1           0        0.099109   -0.890311   -1.251656
      4          1           0        1.111588   -1.050273    0.174405
      5          6           0       -0.541951    0.345299    0.423509
      6          1           0       -1.111520    1.050349   -0.174380
      7          1           0       -1.235747   -0.381885    0.834394
      8          1           0       -0.099116    0.890225    1.251716
 ---------------------------------------------------------------------
 Rotational constants (GHZ):          81.2901767          19.8712250          19.8712249
 Leave Link  202 at Wed Sep 11 13:50:37 2024, MaxMem=   104857600 cpu:               0.6 elap:               0.1
 (Enter /usr/local/g16/l301.exe)
 Standard basis: 6-311++G(d,p) (5D, 7F)
 Ernie: Thresh=  0.10000D-02 Tol=  0.10000D-05 Strict=F.
 There are    88 symmetry adapted cartesian basis functions of A   symmetry.
 There are    86 symmetry adapted basis functions of A   symmetry.
    86 basis functions,   126 primitive gaussians,    88 cartesian basis functions
     9 alpha electrons        9 beta electrons
       nuclear repulsion energy        42.2475088316 Hartrees.
 IExCor=    0 DFT=F Ex=HF Corr=None ExCW=0 ScaHFX=  1.000000
 ScaDFX=  1.000000  1.000000  1.000000  1.000000 ScalE2=  1.000000  1.000000
 IRadAn=      5 IRanWt=     -1 IRanGd=            0 ICorTp=0 IEmpDi=  4
 NAtoms=    8 NActive=    8 NUniq=    8 SFac= 1.00D+00 NAtFMM=   60 NAOKFM=F Big=F
 Integral buffers will be    131072 words long.
 Raffenetti 1 integral format.
 Two-electron integral symmetry is turned on.
 Leave Link  301 at Wed Sep 11 13:50:37 2024, MaxMem=   104857600 cpu:               0.5 elap:               0.1
 (Enter /usr/local/g16/l302.exe)
 NPDir=0 NMtPBC=     1 NCelOv=     1 NCel=       1 NClECP=     1 NCelD=      1
         NCelK=      1 NCelE2=     1 NClLst=     1 CellRange=     0.0.
 One-electron integrals computed using PRISM.
 One-electron integral symmetry used in STVInt
 NBasis=    86 RedAO= T EigKep=  1.54D-04  NBF=    86
 NBsUse=    86 1.00D-06 EigRej= -1.00D+00 NBFU=    86
 Leave Link  302 at Wed Sep 11 13:50:38 2024, MaxMem=   104857600 cpu:               7.2 elap:               0.7
 (Enter /usr/local/g16/l303.exe)
 DipDrv:  MaxL=1.
 Leave Link  303 at Wed Sep 11 13:50:38 2024, MaxMem=   104857600 cpu:               1.4 elap:               0.1
 (Enter /usr/local/g16/l401.exe)
 Initial guess from the checkpoint file:  "c2h6_e.chk"
 B after Tr=    -0.000000    0.000000    0.000000
         Rot=    0.788239    0.105877   -0.532077    0.290454 Ang=  75.96 deg.
 Guess basis will be translated and rotated to current coordinates.
 JPrj=2 DoOrth=T DoCkMO=T.
 Generating alternative initial guess.
 ExpMin= 3.60D-02 ExpMax= 4.56D+03 ExpMxC= 6.82D+02 IAcc=3 IRadAn=         5 AccDes= 0.00D+00
 Harris functional with IExCor=  205 and IRadAn=       5 diagonalized for initial guess.
 HarFok:  IExCor=  205 AccDes= 0.00D+00 IRadAn=         5 IDoV= 1 UseB2=F ITyADJ=14
 ICtDFT=  3500011 ScaDFX=  1.000000  1.000000  1.000000  1.000000
 FoFCou: FMM=F IPFlag=           0 FMFlag=      100000 FMFlg1=           0
         NFxFlg=           0 DoJE=T BraDBF=F KetDBF=T FulRan=T
         wScrn=  0.000000 ICntrl=       500 IOpCl=  0 I1Cent=   200000004 NGrid=           0
         NMat0=    1 NMatS0=      1 NMatT0=    0 NMatD0=    1 NMtDS0=    0 NMtDT0=    0
 Petite list used in FoFCou.
 Harris En= -79.5359963725904    
 Leave Link  401 at Wed Sep 11 13:50:39 2024, MaxMem=   104857600 cpu:              13.3 elap:               1.2
 (Enter /usr/local/g16/l502.exe)
 Keep R1 ints in memory in canonical form, NReq=9532581.
 FoFCou: FMM=F IPFlag=           0 FMFlag=           0 FMFlg1=           0
         NFxFlg=           0 DoJE=F BraDBF=F KetDBF=F FulRan=T
         wScrn=  0.000000 ICntrl=       600 IOpCl=  0 I1Cent=           0 NGrid=           0
         NMat0=    1 NMatS0=   3741 NMatT0=    0 NMatD0=    1 NMtDS0=    0 NMtDT0=    0
 Symmetry not used in FoFCou.
 Two-electron integral symmetry not used.
 Closed shell SCF:
 Using DIIS extrapolation, IDIIS=  1040.
 NGot=   104857600 LenX=    97840569 LenY=    97832384
 Requested convergence on RMS density matrix=1.00D-08 within 128 cycles.
 Requested convergence on MAX density matrix=1.00D-06.
 Requested convergence on             energy=1.00D-06.
 No special actions if energy rises.

 Cycle   1  Pass 1  IDiag  1:
 E= -79.2514415202112    
 DIIS: error= 2.04D-03 at cycle   1 NSaved=   1.
 NSaved= 1 IEnMin= 1 EnMin= -79.2514415202112     IErMin= 1 ErrMin= 2.04D-03
 ErrMax= 2.04D-03  0.00D+00 EMaxC= 1.00D-01 BMatC= 4.20D-04 BMatP= 4.20D-04
 IDIUse=3 WtCom= 9.80D-01 WtEn= 2.04D-02
 Coeff-Com:  0.100D+01
 Coeff-En:   0.100D+01
 Coeff:      0.100D+01
 Gap=     0.688 Goal=   None    Shift=    0.000
 GapD=    0.688 DampG=2.000 DampE=1.000 DampFc=2.0000 IDamp=-1.
 RMSDP=2.25D-04 MaxDP=2.57D-03              OVMax= 4.66D-03

 Cycle   2  Pass 1  IDiag  1:
 E= -79.2518255225274     Delta-E=       -0.000384002316 Rises=F Damp=F
 DIIS: error= 9.70D-04 at cycle   2 NSaved=   2.
 NSaved= 2 IEnMin= 2 EnMin= -79.2518255225274     IErMin= 2 ErrMin= 9.70D-04
 ErrMax= 9.70D-04  0.00D+00 EMaxC= 1.00D-01 BMatC= 2.18D-05 BMatP= 4.20D-04
 IDIUse=3 WtCom= 9.90D-01 WtEn= 9.70D-03
 Coeff-Com: -0.399D-01 0.104D+01
 Coeff-En:   0.000D+00 0.100D+01
 Coeff:     -0.395D-01 0.104D+01
 Gap=     0.535 Goal=   None    Shift=    0.000
 RMSDP=6.46D-05 MaxDP=1.31D-03 DE=-3.84D-04 OVMax= 2.44D-03

 Cycle   3  Pass 1  IDiag  1:
 E= -79.2518498445597     Delta-E=       -0.000024322032 Rises=F Damp=F
 DIIS: error= 3.42D-04 at cycle   3 NSaved=   3.
 NSaved= 3 IEnMin= 3 EnMin= -79.2518498445597     IErMin= 3 ErrMin= 3.42D-04
 ErrMax= 3.42D-04  0.00D+00 EMaxC= 1.00D-01 BMatC= 3.16D-06 BMatP= 2.18D-05
 IDIUse=3 WtCom= 9.97D-01 WtEn= 3.42D-03
 Coeff-Com: -0.547D-01 0.238D+00 0.816D+00
 Coeff-En:   0.000D+00 0.000D+00 0.100D+01
 Coeff:     -0.545D-01 0.238D+00 0.817D+00
 Gap=     0.534 Goal=   None    Shift=    0.000
 RMSDP=1.47D-05 MaxDP=1.88D-04 DE=-2.43D-05 OVMax= 5.30D-04

 Cycle   4  Pass 1  IDiag  1:
 E= -79.2518535154396     Delta-E=       -0.000003670880 Rises=F Damp=F
 DIIS: error= 7.33D-05 at cycle   4 NSaved=   4.
 NSaved= 4 IEnMin= 4 EnMin= -79.2518535154396     IErMin= 4 ErrMin= 7.33D-05
 ErrMax= 7.33D-05  0.00D+00 EMaxC= 1.00D-01 BMatC= 7.03D-08 BMatP= 3.16D-06
 IDIUse=1 WtCom= 1.00D+00 WtEn= 0.00D+00
 Coeff-Com:  0.111D-01-0.855D-01-0.148D+00 0.122D+01
 Coeff:      0.111D-01-0.855D-01-0.148D+00 0.122D+01
 Gap=     0.534 Goal=   None    Shift=    0.000
 RMSDP=4.94D-06 MaxDP=5.67D-05 DE=-3.67D-06 OVMax= 2.48D-04

 Cycle   5  Pass 1  IDiag  1:
 E= -79.2518536780612     Delta-E=       -0.000000162622 Rises=F Damp=F
 DIIS: error= 6.21D-06 at cycle   5 NSaved=   5.
 NSaved= 5 IEnMin= 5 EnMin= -79.2518536780612     IErMin= 5 ErrMin= 6.21D-06
 ErrMax= 6.21D-06  0.00D+00 EMaxC= 1.00D-01 BMatC= 1.11D-09 BMatP= 7.03D-08
 IDIUse=1 WtCom= 1.00D+00 WtEn= 0.00D+00
 Coeff-Com:  0.113D-03 0.181D-02-0.498D-02-0.108D+00 0.111D+01
 Coeff:      0.113D-03 0.181D-02-0.498D-02-0.108D+00 0.111D+01
 Gap=     0.534 Goal=   None    Shift=    0.000
 RMSDP=1.01D-06 MaxDP=1.29D-05 DE=-1.63D-07 OVMax= 3.25D-05

 Cycle   6  Pass 1  IDiag  1:
 E= -79.2518536808238     Delta-E=       -0.000000002763 Rises=F Damp=F
 DIIS: error= 1.33D-06 at cycle   6 NSaved=   6.
 NSaved= 6 IEnMin= 6 EnMin= -79.2518536808238     IErMin= 6 ErrMin= 1.33D-06
 ErrMax= 1.33D-06  0.00D+00 EMaxC= 1.00D-01 BMatC= 3.63D-11 BMatP= 1.11D-09
 IDIUse=1 WtCom= 1.00D+00 WtEn= 0.00D+00
 Coeff-Com: -0.329D-03 0.221D-02 0.520D-02-0.183D-01-0.173D+00 0.118D+01
 Coeff:     -0.329D-03 0.221D-02 0.520D-02-0.183D-01-0.173D+00 0.118D+01
 Gap=     0.534 Goal=   None    Shift=    0.000
 RMSDP=2.06D-07 MaxDP=2.69D-06 DE=-2.76D-09 OVMax= 5.74D-06

 Cycle   7  Pass 1  IDiag  1:
 E= -79.2518536809149     Delta-E=       -0.000000000091 Rises=F Damp=F
 DIIS: error= 1.40D-07 at cycle   7 NSaved=   7.
 NSaved= 7 IEnMin= 7 EnMin= -79.2518536809149     IErMin= 7 ErrMin= 1.40D-07
 ErrMax= 1.40D-07  0.00D+00 EMaxC= 1.00D-01 BMatC= 7.71D-13 BMatP= 3.63D-11
 IDIUse=1 WtCom= 1.00D+00 WtEn= 0.00D+00
 Coeff-Com:  0.482D-04-0.415D-03-0.697D-03 0.556D-02 0.267D-02-0.206D+00
 Coeff-Com:  0.120D+01
 Coeff:      0.482D-04-0.415D-03-0.697D-03 0.556D-02 0.267D-02-0.206D+00
 Coeff:      0.120D+01
 Gap=     0.534 Goal=   None    Shift=    0.000
 RMSDP=3.17D-08 MaxDP=3.18D-07 DE=-9.11D-11 OVMax= 6.05D-07

 Cycle   8  Pass 1  IDiag  1:
 E= -79.2518536809167     Delta-E=       -0.000000000002 Rises=F Damp=F
 DIIS: error= 2.46D-08 at cycle   8 NSaved=   8.
 NSaved= 8 IEnMin= 8 EnMin= -79.2518536809167     IErMin= 8 ErrMin= 2.46D-08
 ErrMax= 2.46D-08  0.00D+00 EMaxC= 1.00D-01 BMatC= 1.62D-14 BMatP= 7.71D-13
 IDIUse=1 WtCom= 1.00D+00 WtEn= 0.00D+00
 Coeff-Com: -0.836D-05 0.760D-04 0.136D-03-0.124D-02 0.172D-02 0.387D-01
 Coeff-Com: -0.341D+00 0.130D+01
 Coeff:     -0.836D-05 0.760D-04 0.136D-03-0.124D-02 0.172D-02 0.387D-01
 Coeff:     -0.341D+00 0.130D+01
 Gap=     0.534 Goal=   None    Shift=    0.000
 RMSDP=1.05D-08 MaxDP=1.28D-07 DE=-1.88D-12 OVMax= 1.10D-07

 Cycle   9  Pass 1  IDiag  1:
 E= -79.2518536809169     Delta-E=       -0.000000000000 Rises=F Damp=F
 DIIS: error= 1.99D-09 at cycle   9 NSaved=   9.
 NSaved= 9 IEnMin= 9 EnMin= -79.2518536809169     IErMin= 9 ErrMin= 1.99D-09
 ErrMax= 1.99D-09  0.00D+00 EMaxC= 1.00D-01 BMatC= 1.50D-16 BMatP= 1.62D-14
 IDIUse=1 WtCom= 1.00D+00 WtEn= 0.00D+00
 Coeff-Com:  0.134D-05-0.129D-04-0.221D-04 0.219D-03-0.393D-03-0.695D-02
 Coeff-Com:  0.687D-01-0.320D+00 0.126D+01
 Coeff:      0.134D-05-0.129D-04-0.221D-04 0.219D-03-0.393D-03-0.695D-02
 Coeff:      0.687D-01-0.320D+00 0.126D+01
 Gap=     0.534 Goal=   None    Shift=    0.000
 RMSDP=9.15D-10 MaxDP=8.47D-09 DE=-1.99D-13 OVMax= 1.01D-08

 SCF Done:  E(RHF) =  -79.2518536809     A.U. after    9 cycles
            NFock=  9  Conv=0.92D-09     -V/T= 2.0007
 KE= 7.919778985868D+01 PE=-2.682729434361D+02 EE= 6.757579106490D+01
 Leave Link  502 at Wed Sep 11 13:50:42 2024, MaxMem=   104857600 cpu:              23.5 elap:               2.2
 (Enter /usr/local/g16/l701.exe)
 ... and contract with generalized density number  0.
 Compute integral first derivatives.
 Leave Link  701 at Wed Sep 11 13:50:42 2024, MaxMem=   104857600 cpu:               3.7 elap:               0.3
 (Enter /usr/local/g16/l702.exe)
 L702 exits ... SP integral derivatives will be done elsewhere.
 Leave Link  702 at Wed Sep 11 13:50:42 2024, MaxMem=   104857600 cpu:               0.3 elap:               0.0
 (Enter /usr/local/g16/l703.exe)
 Integral derivatives from FoFJK, PRISM(SPDF).
 Compute integral first derivatives, UseDBF=F ICtDFT=           0.
 Calling FoFJK, ICntrl=      2127 FMM=F ISym2X=0 I1Cent= 0 IOpClX= 0 NMat=1 NMatS=1 NMatT=0.
 FoFJK:  IHMeth= 1 ICntrl=    2127 DoSepK=F KAlg= 0 I1Cent=           0 FoldK=F
 IRaf=         0 NMat=       1 IRICut=       1 DoRegI=T DoRafI=F ISym2E= 0 IDoP0=0 IntGTp=1.
 FoFCou: FMM=F IPFlag=           0 FMFlag=      100000 FMFlg1=         800
         NFxFlg=           0 DoJE=F BraDBF=F KetDBF=F FulRan=T
         wScrn=  0.000000 ICntrl=      2127 IOpCl=  0 I1Cent=           0 NGrid=           0
         NMat0=    1 NMatS0=      1 NMatT0=    0 NMatD0=    1 NMtDS0=    0 NMtDT0=    0
 Symmetry not used in FoFCou.
 Leave Link  703 at Wed Sep 11 13:50:42 2024, MaxMem=   104857600 cpu:               3.9 elap:               0.4
 (Enter /usr/local/g16/l716.exe)
 Dipole        = 3.59773858D-09 3.71799769D-09 1.46218948D-09
 ***** Axes restored to original set *****
 -------------------------------------------------------------------
 Center     Atomic                   Forces (Hartrees/Bohr)
 Number     Number              X              Y              Z
 -------------------------------------------------------------------
      1        6          -0.003412061    0.005909871   -0.002412701
      2        1           0.000146456   -0.000254467    0.000141163
      3        1           0.000182155   -0.000254080    0.000091678
      4        1           0.000129423   -0.000284781    0.000091024
      5        6           0.003412049   -0.005909874    0.002412712
      6        1          -0.000128963    0.000284783   -0.000091674
      7        1          -0.000147137    0.000254068   -0.000141168
      8        1          -0.000181922    0.000254479   -0.000091035
 -------------------------------------------------------------------
 Cartesian Forces:  Max     0.005909874 RMS     0.002095795
 Leave Link  716 at Wed Sep 11 13:50:42 2024, MaxMem=   104857600 cpu:               0.3 elap:               0.0
 (Enter /usr/local/g16/l103.exe)

 GradGradGradGradGradGradGradGradGradGradGradGradGradGradGradGradGradGrad
 Berny optimization.
 Using GEDIIS/GDIIS optimizer.
 FormGI is forming the generalized inverse of G from B-inverse, IUseBI=4.
 Internal  Forces:  Max     0.006266461 RMS     0.001201298
 Search for a local minimum.
 Step number   2 out of a maximum of   38
 All quantities printed in internal units (Hartrees-Bohrs-Radians)
 RMS Force = .12013D-02 SwitMx=.10000D-02 MixMth= 1
 Mixed Optimization -- RFO/linear search
 Update second derivatives using D2CorX and points    1    2
 DE= -1.73D-03 DEPred=-1.71D-03 R= 1.01D+00
 TightC=F SS=  1.41D+00  RLast= 1.17D-01 DXNew= 5.0454D-01 3.5082D-01
 Trust test= 1.01D+00 RLast= 1.17D-01 DXMaxT set to 3.51D-01
 ITU=  1  0
 Use linear search instead of GDIIS.
     Eigenvalues ---    0.00237   0.05444   0.05444   0.05444   0.05444
     Eigenvalues ---    0.14973   0.16000   0.16000   0.16000   0.16000
     Eigenvalues ---    0.16000   0.27531   0.37230   0.37230   0.37230
     Eigenvalues ---    0.37230   0.37230   0.40201
 RFO step:  Lambda=-1.51098550D-04 EMin= 2.36824216D-03
 Quartic linear search produced a step of  0.04091.
 Iteration  1 RMS(Cart)=  0.00386245 RMS(Int)=  0.00001257
 Iteration  2 RMS(Cart)=  0.00000524 RMS(Int)=  0.00001180
 Iteration  3 RMS(Cart)=  0.00000000 RMS(Int)=  0.00001180
 ITry= 1 IFail=0 DXMaxC= 9.36D-03 DCOld= 1.00D+10 DXMaxT= 3.51D-01 DXLimC= 3.00D+00 Rises=F
 Variable       Old X    -DE/DX   Delta X   Delta X   Delta X     New X
                                 (Linear)    (Quad)   (Total)
    R1        2.05188   0.00015   0.00122   0.00055   0.00177   2.05364
    R2        2.05188   0.00015   0.00122   0.00055   0.00177   2.05364
    R3        2.05188   0.00015   0.00122   0.00055   0.00177   2.05364
    R4        2.90871  -0.00627  -0.00006  -0.02287  -0.02293   2.88578
    R5        2.05188   0.00015   0.00122   0.00055   0.00177   2.05364
    R6        2.05188   0.00015   0.00122   0.00055   0.00177   2.05364
    R7        2.05188   0.00015   0.00122   0.00055   0.00177   2.05364
    A1        1.88395  -0.00030  -0.00109  -0.00207  -0.00318   1.88077
    A2        1.88395  -0.00030  -0.00109  -0.00207  -0.00318   1.88077
    A3        1.93661   0.00028   0.00106   0.00197   0.00301   1.93962
    A4        1.88395  -0.00030  -0.00109  -0.00207  -0.00318   1.88077
    A5        1.93661   0.00028   0.00106   0.00197   0.00301   1.93962
    A6        1.93661   0.00028   0.00106   0.00197   0.00301   1.93962
    A7        1.93661   0.00028   0.00106   0.00197   0.00301   1.93962
    A8        1.93661   0.00028   0.00106   0.00197   0.00301   1.93962
    A9        1.93661   0.00028   0.00106   0.00197   0.00301   1.93962
   A10        1.88395  -0.00030  -0.00109  -0.00207  -0.00318   1.88077
   A11        1.88395  -0.00030  -0.00109  -0.00207  -0.00318   1.88077
   A12        1.88395  -0.00030  -0.00109  -0.00207  -0.00318   1.88077
    D1        1.04709   0.00000   0.00000   0.00011   0.00012   1.04721
    D2        3.14149   0.00000   0.00000   0.00011   0.00012  -3.14158
    D3       -1.04730   0.00000   0.00000   0.00011   0.00012  -1.04718
    D4       -1.04730   0.00000   0.00000   0.00011   0.00012  -1.04718
    D5        1.04709   0.00000   0.00000   0.00011   0.00012   1.04721
    D6        3.14149   0.00000   0.00000   0.00011   0.00012  -3.14158
    D7        3.14149   0.00000   0.00000   0.00011   0.00012  -3.14158
    D8       -1.04730   0.00000   0.00000   0.00011   0.00012  -1.04718
    D9        1.04709   0.00000   0.00000   0.00011   0.00012   1.04721
         Item               Value     Threshold  Converged?
 Maximum Force            0.006266     0.000450     NO 
 RMS     Force            0.001201     0.000300     NO 
 Maximum Displacement     0.009359     0.001800     NO 
 RMS     Displacement     0.003866     0.001200     NO 
 Predicted change in Energy=-7.778600D-05
 Lowest energy point so far.  Saving SCF results.
 GradGradGradGradGradGradGradGradGradGradGradGradGradGradGradGradGradGrad

 Leave Link  103 at Wed Sep 11 13:50:43 2024, MaxMem=   104857600 cpu:               6.1 elap:               0.6
 (Enter /usr/local/g16/l202.exe)
                          Input orientation:                          
 ---------------------------------------------------------------------
 Center     Atomic      Atomic             Coordinates (Angstroms)
 Number     Number       Type             X           Y           Z
 ---------------------------------------------------------------------
      1          6           0       -0.003043    0.005270   -0.002151
      2          1           0        0.012616   -0.022062    1.084134
      3          1           0        1.026397   -0.021956   -0.349312
      4          1           0       -0.494062   -0.899864   -0.349484
      5          6           0       -0.722921    1.252135   -0.511181
      6          1           0       -0.231893    2.157269   -0.163861
      7          1           0       -0.738592    1.279460   -1.597466
      8          1           0       -1.752356    1.279368   -0.164009
 ---------------------------------------------------------------------
                    Distance matrix (angstroms):
                    1          2          3          4          5
     1  C    0.000000
     2  H    1.086742   0.000000
     3  H    1.086742   1.755710   0.000000
     4  H    1.086742   1.755710   1.755710   0.000000
     5  C    1.527092   2.170167   2.170167   2.170167   0.000000
     6  H    2.170167   2.523244   2.523234   3.073964   1.086742
     7  H    2.170167   3.073964   2.523244   2.523234   1.086742
     8  H    2.170167   2.523234   3.073964   2.523244   1.086742
                    6          7          8
     6  H    0.000000
     7  H    1.755710   0.000000
     8  H    1.755710   1.755710   0.000000
 This structure is nearly, but not quite of a higher symmetry.
 Consider Symm=Loose if the higher symmetry is desired.
 Stoichiometry    C2H6
 Framework group  C1[X(C2H6)]
 Deg. of freedom    18
 Full point group                 C1      NOp   1
 RotChk:  IX=3 Diff= 1.90D+00
 Largest Abelian subgroup         C1      NOp   1
 Largest concise Abelian subgroup C1      NOp   1
                         Standard orientation:                         
 ---------------------------------------------------------------------
 Center     Atomic      Atomic             Coordinates (Angstroms)
 Number     Number       Type             X           Y           Z
 ---------------------------------------------------------------------
      1          6           0        0.327756    0.153463   -0.672330
      2          1           0       -0.359081    0.675935   -1.332849
      3          1           0        0.639993   -0.758959   -1.173330
      4          1           0        1.206893    0.779649   -0.545774
      5          6           0       -0.327756   -0.153463    0.672330
      6          1           0       -1.206885   -0.779661    0.545775
      7          1           0        0.359086   -0.675923    1.332854
      8          1           0       -0.640006    0.758958    1.173323
 ---------------------------------------------------------------------
 Rotational constants (GHZ):          81.3385714          20.0784631          20.0784630
 Leave Link  202 at Wed Sep 11 13:50:43 2024, MaxMem=   104857600 cpu:               0.5 elap:               0.1
 (Enter /usr/local/g16/l301.exe)
 Standard basis: 6-311++G(d,p) (5D, 7F)
 Ernie: Thresh=  0.10000D-02 Tol=  0.10000D-05 Strict=F.
 There are    88 symmetry adapted cartesian basis functions of A   symmetry.
 There are    86 symmetry adapted basis functions of A   symmetry.
    86 basis functions,   126 primitive gaussians,    88 cartesian basis functions
     9 alpha electrons        9 beta electrons
       nuclear repulsion energy        42.3662543694 Hartrees.
 IExCor=    0 DFT=F Ex=HF Corr=None ExCW=0 ScaHFX=  1.000000
 ScaDFX=  1.000000  1.000000  1.000000  1.000000 ScalE2=  1.000000  1.000000
 IRadAn=      5 IRanWt=     -1 IRanGd=            0 ICorTp=0 IEmpDi=  4
 NAtoms=    8 NActive=    8 NUniq=    8 SFac= 1.00D+00 NAtFMM=   60 NAOKFM=F Big=F
 Integral buffers will be    131072 words long.
 Raffenetti 1 integral format.
 Two-electron integral symmetry is turned on.
 Leave Link  301 at Wed Sep 11 13:50:43 2024, MaxMem=   104857600 cpu:               0.5 elap:               0.1
 (Enter /usr/local/g16/l302.exe)
 NPDir=0 NMtPBC=     1 NCelOv=     1 NCel=       1 NClECP=     1 NCelD=      1
         NCelK=      1 NCelE2=     1 NClLst=     1 CellRange=     0.0.
 One-electron integrals computed using PRISM.
 One-electron integral symmetry used in STVInt
 NBasis=    86 RedAO= T EigKep=  1.49D-04  NBF=    86
 NBsUse=    86 1.00D-06 EigRej= -1.00D+00 NBFU=    86
 Leave Link  302 at Wed Sep 11 13:50:44 2024, MaxMem=   104857600 cpu:               4.7 elap:               0.4
 (Enter /usr/local/g16/l303.exe)
 DipDrv:  MaxL=1.
 Leave Link  303 at Wed Sep 11 13:50:44 2024, MaxMem=   104857600 cpu:               1.4 elap:               0.1
 (Enter /usr/local/g16/l401.exe)
 Initial guess from the checkpoint file:  "c2h6_e.chk"
 B after Tr=     0.000000    0.000000   -0.000000
         Rot=    0.740485    0.145216   -0.247485   -0.607738 Ang=  84.45 deg.
 Guess basis will be translated and rotated to current coordinates.
 JPrj=2 DoOrth=T DoCkMO=T.
 Leave Link  401 at Wed Sep 11 13:50:44 2024, MaxMem=   104857600 cpu:               7.6 elap:               0.7
 (Enter /usr/local/g16/l502.exe)
 Keep R1 ints in memory in canonical form, NReq=9532581.
 FoFCou: FMM=F IPFlag=           0 FMFlag=           0 FMFlg1=           0
         NFxFlg=           0 DoJE=F BraDBF=F KetDBF=F FulRan=T
         wScrn=  0.000000 ICntrl=       600 IOpCl=  0 I1Cent=           0 NGrid=           0
         NMat0=    1 NMatS0=   3741 NMatT0=    0 NMatD0=    1 NMtDS0=    0 NMtDT0=    0
 Symmetry not used in FoFCou.
 Two-electron integral symmetry not used.
 Closed shell SCF:
 Using DIIS extrapolation, IDIIS=  1040.
 NGot=   104857600 LenX=    97840569 LenY=    97832384
 Requested convergence on RMS density matrix=1.00D-08 within 128 cycles.
 Requested convergence on MAX density matrix=1.00D-06.
 Requested convergence on             energy=1.00D-06.
 No special actions if energy rises.

 Cycle   1  Pass 1  IDiag  1:
 E= -79.2518951418435    
 DIIS: error= 9.65D-04 at cycle   1 NSaved=   1.
 NSaved= 1 IEnMin= 1 EnMin= -79.2518951418435     IErMin= 1 ErrMin= 9.65D-04
 ErrMax= 9.65D-04  0.00D+00 EMaxC= 1.00D-01 BMatC= 3.04D-05 BMatP= 3.04D-05
 IDIUse=3 WtCom= 9.90D-01 WtEn= 9.65D-03
 Coeff-Com:  0.100D+01
 Coeff-En:   0.100D+01
 Coeff:      0.100D+01
 Gap=     0.686 Goal=   None    Shift=    0.000
 RMSDP=6.30D-05 MaxDP=1.20D-03              OVMax= 2.06D-03

 Cycle   2  Pass 1  IDiag  1:
 E= -79.2519299339825     Delta-E=       -0.000034792139 Rises=F Damp=F
 DIIS: error= 2.23D-04 at cycle   2 NSaved=   2.
 NSaved= 2 IEnMin= 2 EnMin= -79.2519299339825     IErMin= 2 ErrMin= 2.23D-04
 ErrMax= 2.23D-04  0.00D+00 EMaxC= 1.00D-01 BMatC= 1.50D-06 BMatP= 3.04D-05
 IDIUse=3 WtCom= 9.98D-01 WtEn= 2.23D-03
 Coeff-Com: -0.169D+00 0.117D+01
 Coeff-En:   0.000D+00 0.100D+01
 Coeff:     -0.168D+00 0.117D+01
 Gap=     0.532 Goal=   None    Shift=    0.000
 RMSDP=1.63D-05 MaxDP=3.33D-04 DE=-3.48D-05 OVMax= 6.22D-04

 Cycle   3  Pass 1  IDiag  1:
 E= -79.2519325028800     Delta-E=       -0.000002568897 Rises=F Damp=F
 DIIS: error= 6.99D-05 at cycle   3 NSaved=   3.
 NSaved= 3 IEnMin= 3 EnMin= -79.2519325028800     IErMin= 3 ErrMin= 6.99D-05
 ErrMax= 6.99D-05  0.00D+00 EMaxC= 1.00D-01 BMatC= 7.56D-08 BMatP= 1.50D-06
 IDIUse=1 WtCom= 1.00D+00 WtEn= 0.00D+00
 Coeff-Com: -0.346D-01 0.622D-01 0.972D+00
 Coeff:     -0.346D-01 0.622D-01 0.972D+00
 Gap=     0.532 Goal=   None    Shift=    0.000
 RMSDP=3.58D-06 MaxDP=4.50D-05 DE=-2.57D-06 OVMax= 2.09D-04

 Cycle   4  Pass 1  IDiag  1:
 E= -79.2519326217835     Delta-E=       -0.000000118903 Rises=F Damp=F
 DIIS: error= 1.51D-05 at cycle   4 NSaved=   4.
 NSaved= 4 IEnMin= 4 EnMin= -79.2519326217835     IErMin= 4 ErrMin= 1.51D-05
 ErrMax= 1.51D-05  0.00D+00 EMaxC= 1.00D-01 BMatC= 7.55D-09 BMatP= 7.56D-08
 IDIUse=1 WtCom= 1.00D+00 WtEn= 0.00D+00
 Coeff-Com:  0.686D-02-0.739D-01 0.166D+00 0.901D+00
 Coeff:      0.686D-02-0.739D-01 0.166D+00 0.901D+00
 Gap=     0.532 Goal=   None    Shift=    0.000
 RMSDP=1.01D-06 MaxDP=1.29D-05 DE=-1.19D-07 OVMax= 3.83D-05

 Cycle   5  Pass 1  IDiag  1:
 E= -79.2519326325994     Delta-E=       -0.000000010816 Rises=F Damp=F
 DIIS: error= 3.17D-06 at cycle   5 NSaved=   5.
 NSaved= 5 IEnMin= 5 EnMin= -79.2519326325994     IErMin= 5 ErrMin= 3.17D-06
 ErrMax= 3.17D-06  0.00D+00 EMaxC= 1.00D-01 BMatC= 1.54D-10 BMatP= 7.55D-09
 IDIUse=1 WtCom= 1.00D+00 WtEn= 0.00D+00
 Coeff-Com: -0.451D-03 0.123D-01-0.666D-01-0.187D+00 0.124D+01
 Coeff:     -0.451D-03 0.123D-01-0.666D-01-0.187D+00 0.124D+01
 Gap=     0.532 Goal=   None    Shift=    0.000
 RMSDP=3.15D-07 MaxDP=3.09D-06 DE=-1.08D-08 OVMax= 1.53D-05

 Cycle   6  Pass 1  IDiag  1:
 E= -79.2519326330366     Delta-E=       -0.000000000437 Rises=F Damp=F
 DIIS: error= 3.76D-07 at cycle   6 NSaved=   6.
 NSaved= 6 IEnMin= 6 EnMin= -79.2519326330366     IErMin= 6 ErrMin= 3.76D-07
 ErrMax= 3.76D-07  0.00D+00 EMaxC= 1.00D-01 BMatC= 3.29D-12 BMatP= 1.54D-10
 IDIUse=1 WtCom= 1.00D+00 WtEn= 0.00D+00
 Coeff-Com: -0.170D-03 0.107D-02 0.250D-02-0.123D-02-0.153D+00 0.115D+01
 Coeff:     -0.170D-03 0.107D-02 0.250D-02-0.123D-02-0.153D+00 0.115D+01
 Gap=     0.532 Goal=   None    Shift=    0.000
 RMSDP=4.98D-08 MaxDP=4.50D-07 DE=-4.37D-10 OVMax= 1.43D-06

 Cycle   7  Pass 1  IDiag  1:
 E= -79.2519326330450     Delta-E=       -0.000000000008 Rises=F Damp=F
 DIIS: error= 2.81D-08 at cycle   7 NSaved=   7.
 NSaved= 7 IEnMin= 7 EnMin= -79.2519326330450     IErMin= 7 ErrMin= 2.81D-08
 ErrMax= 2.81D-08  0.00D+00 EMaxC= 1.00D-01 BMatC= 7.37D-14 BMatP= 3.29D-12
 IDIUse=1 WtCom= 1.00D+00 WtEn= 0.00D+00
 Coeff-Com:  0.461D-04-0.585D-03 0.158D-02 0.676D-02-0.182D-01-0.138D+00
 Coeff-Com:  0.115D+01
 Coeff:      0.461D-04-0.585D-03 0.158D-02 0.676D-02-0.182D-01-0.138D+00
 Coeff:      0.115D+01
 Gap=     0.532 Goal=   None    Shift=    0.000
 RMSDP=8.54D-09 MaxDP=1.18D-07 DE=-8.36D-12 OVMax= 1.29D-07

 SCF Done:  E(RHF) =  -79.2519326330     A.U. after    7 cycles
            NFock=  7  Conv=0.85D-08     -V/T= 2.0005
 KE= 7.921037373378D+01 PE=-2.685188013237D+02 EE= 6.769024058740D+01
 Leave Link  502 at Wed Sep 11 13:50:45 2024, MaxMem=   104857600 cpu:              10.4 elap:               1.0
 (Enter /usr/local/g16/l701.exe)
 ... and contract with generalized density number  0.
 Compute integral first derivatives.
 Leave Link  701 at Wed Sep 11 13:50:46 2024, MaxMem=   104857600 cpu:               3.7 elap:               0.4
 (Enter /usr/local/g16/l702.exe)
 L702 exits ... SP integral derivatives will be done elsewhere.
 Leave Link  702 at Wed Sep 11 13:50:46 2024, MaxMem=   104857600 cpu:               0.3 elap:               0.0
 (Enter /usr/local/g16/l703.exe)
 Integral derivatives from FoFJK, PRISM(SPDF).
 Compute integral first derivatives, UseDBF=F ICtDFT=           0.
 Calling FoFJK, ICntrl=      2127 FMM=F ISym2X=0 I1Cent= 0 IOpClX= 0 NMat=1 NMatS=1 NMatT=0.
 FoFJK:  IHMeth= 1 ICntrl=    2127 DoSepK=F KAlg= 0 I1Cent=           0 FoldK=F
 IRaf=         0 NMat=       1 IRICut=       1 DoRegI=T DoRafI=F ISym2E= 0 IDoP0=0 IntGTp=1.
 FoFCou: FMM=F IPFlag=           0 FMFlag=      100000 FMFlg1=         800
         NFxFlg=           0 DoJE=F BraDBF=F KetDBF=F FulRan=T
         wScrn=  0.000000 ICntrl=      2127 IOpCl=  0 I1Cent=           0 NGrid=           0
         NMat0=    1 NMatS0=      1 NMatT0=    0 NMatD0=    1 NMtDS0=    0 NMtDT0=    0
 Symmetry not used in FoFCou.
 Leave Link  703 at Wed Sep 11 13:50:46 2024, MaxMem=   104857600 cpu:               4.1 elap:               0.4
 (Enter /usr/local/g16/l716.exe)
 Dipole        = 1.04114961D-09-2.54717447D-09-8.78617179D-11
 ***** Axes restored to original set *****
 -------------------------------------------------------------------
 Center     Atomic                   Forces (Hartrees/Bohr)
 Number     Number              X              Y              Z
 -------------------------------------------------------------------
      1        6          -0.000013359    0.000023134   -0.000009441
      2        1           0.000086488   -0.000149608   -0.000332990
      3        1          -0.000285175   -0.000149702    0.000192380
      4        1           0.000272123    0.000172116    0.000192537
      5        6           0.000013358   -0.000023134    0.000009441
      6        1          -0.000272193   -0.000172116   -0.000192438
      7        1          -0.000086384    0.000149669    0.000332989
      8        1           0.000285142    0.000149642   -0.000192479
 -------------------------------------------------------------------
 Cartesian Forces:  Max     0.000332990 RMS     0.000187759
 Leave Link  716 at Wed Sep 11 13:50:46 2024, MaxMem=   104857600 cpu:               0.3 elap:               0.0
 (Enter /usr/local/g16/l103.exe)

 GradGradGradGradGradGradGradGradGradGradGradGradGradGradGradGradGradGrad
 Berny optimization.
 Using GEDIIS/GDIIS optimizer.
 FormGI is forming the generalized inverse of G from B-inverse, IUseBI=4.
 Internal  Forces:  Max     0.000327846 RMS     0.000194365
 Search for a local minimum.
 Step number   3 out of a maximum of   38
 All quantities printed in internal units (Hartrees-Bohrs-Radians)
 RMS Force = .19437D-03 SwitMx=.10000D-02 MixMth= 2
 Mixed Optimization -- En-DIIS/RFO-DIIS
 Update second derivatives using D2CorX and points    1    2    3
 DE= -7.90D-05 DEPred=-7.78D-05 R= 1.01D+00
 TightC=F SS=  1.41D+00  RLast= 2.57D-02 DXNew= 5.9001D-01 7.7045D-02
 Trust test= 1.01D+00 RLast= 2.57D-02 DXMaxT set to 3.51D-01
 ITU=  1  1  0
 Use linear search instead of GDIIS.
     Eigenvalues ---    0.00237   0.05412   0.05412   0.05412   0.05412
     Eigenvalues ---    0.13000   0.16000   0.16000   0.16000   0.16000
     Eigenvalues ---    0.16000   0.31655   0.37230   0.37230   0.37230
     Eigenvalues ---    0.37230   0.37230   0.40043
 RFO step:  Lambda=-4.28213700D-06 EMin= 2.36824267D-03
 Quartic linear search produced a step of  0.00223.
 Iteration  1 RMS(Cart)=  0.00118238 RMS(Int)=  0.00000108
 Iteration  2 RMS(Cart)=  0.00000106 RMS(Int)=  0.00000047
 Iteration  3 RMS(Cart)=  0.00000000 RMS(Int)=  0.00000047
 ITry= 1 IFail=0 DXMaxC= 2.07D-03 DCOld= 1.00D+10 DXMaxT= 3.51D-01 DXLimC= 3.00D+00 Rises=F
 Variable       Old X    -DE/DX   Delta X   Delta X   Delta X     New X
                                 (Linear)    (Quad)   (Total)
    R1        2.05364  -0.00033   0.00000  -0.00081  -0.00080   2.05284
    R2        2.05364  -0.00033   0.00000  -0.00081  -0.00080   2.05284
    R3        2.05364  -0.00033   0.00000  -0.00081  -0.00080   2.05284
    R4        2.88578   0.00013  -0.00005  -0.00011  -0.00016   2.88562
    R5        2.05364  -0.00033   0.00000  -0.00081  -0.00080   2.05284
    R6        2.05364  -0.00033   0.00000  -0.00081  -0.00080   2.05284
    R7        2.05364  -0.00033   0.00000  -0.00081  -0.00080   2.05284
    A1        1.88077  -0.00019  -0.00001  -0.00128  -0.00129   1.87949
    A2        1.88077  -0.00019  -0.00001  -0.00128  -0.00129   1.87949
    A3        1.93962   0.00018   0.00001   0.00121   0.00121   1.94083
    A4        1.88077  -0.00019  -0.00001  -0.00128  -0.00129   1.87949
    A5        1.93962   0.00018   0.00001   0.00121   0.00121   1.94083
    A6        1.93962   0.00018   0.00001   0.00121   0.00121   1.94083
    A7        1.93962   0.00018   0.00001   0.00121   0.00121   1.94083
    A8        1.93962   0.00018   0.00001   0.00121   0.00121   1.94083
    A9        1.93962   0.00018   0.00001   0.00121   0.00121   1.94083
   A10        1.88077  -0.00019  -0.00001  -0.00128  -0.00129   1.87949
   A11        1.88077  -0.00019  -0.00001  -0.00128  -0.00129   1.87949
   A12        1.88077  -0.00019  -0.00001  -0.00128  -0.00129   1.87949
    D1        1.04721  -0.00000   0.00000  -0.00001  -0.00001   1.04720
    D2       -3.14158  -0.00000   0.00000  -0.00001  -0.00001  -3.14159
    D3       -1.04718  -0.00000   0.00000  -0.00001  -0.00001  -1.04720
    D4       -1.04718  -0.00000   0.00000  -0.00001  -0.00001  -1.04720
    D5        1.04721  -0.00000   0.00000  -0.00001  -0.00001   1.04720
    D6       -3.14158  -0.00000   0.00000  -0.00001  -0.00001  -3.14159
    D7       -3.14158  -0.00000   0.00000  -0.00001  -0.00001  -3.14159
    D8       -1.04718  -0.00000   0.00000  -0.00001  -0.00001  -1.04720
    D9        1.04721  -0.00000   0.00000  -0.00001  -0.00001   1.04720
         Item               Value     Threshold  Converged?
 Maximum Force            0.000328     0.000450     YES
 RMS     Force            0.000194     0.000300     YES
 Maximum Displacement     0.002075     0.001800     NO 
 RMS     Displacement     0.001182     0.001200     YES
 Predicted change in Energy=-2.142113D-06
 Lowest energy point so far.  Saving SCF results.
 GradGradGradGradGradGradGradGradGradGradGradGradGradGradGradGradGradGrad

 Leave Link  103 at Wed Sep 11 13:50:47 2024, MaxMem=   104857600 cpu:               9.7 elap:               0.9
 (Enter /usr/local/g16/l202.exe)
                          Input orientation:                          
 ---------------------------------------------------------------------
 Center     Atomic      Atomic             Coordinates (Angstroms)
 Number     Number       Type             X           Y           Z
 ---------------------------------------------------------------------
      1          6           0       -0.003063    0.005305   -0.002165
      2          1           0        0.013254   -0.023154    1.083656
      3          1           0        1.026155   -0.023054   -0.348562
      4          1           0       -0.492998   -0.900204   -0.348723
      5          6           0       -0.722901    1.252100   -0.511167
      6          1           0       -0.232965    2.157609   -0.164611
      7          1           0       -0.739219    1.280558   -1.596989
      8          1           0       -1.752119    1.280460   -0.164769
 ---------------------------------------------------------------------
                    Distance matrix (angstroms):
                    1          2          3          4          5
     1  C    0.000000
     2  H    1.086317   0.000000
     3  H    1.086317   1.754200   0.000000
     4  H    1.086317   1.754200   1.754200   0.000000
     5  C    1.527007   2.170635   2.170635   2.170635   0.000000
     6  H    2.170635   2.524781   2.524780   3.074367   1.086317
     7  H    2.170635   3.074367   2.524781   2.524780   1.086317
     8  H    2.170635   2.524780   3.074367   2.524781   1.086317
                    6          7          8
     6  H    0.000000
     7  H    1.754200   0.000000
     8  H    1.754200   1.754200   0.000000
 This structure is nearly, but not quite of a higher symmetry.
 Consider Symm=Loose if the higher symmetry is desired.
 Stoichiometry    C2H6
 Framework group  C1[X(C2H6)]
 Deg. of freedom    18
 Full point group                 C1      NOp   1
 RotChk:  IX=1 Diff= 1.98D+00
 Largest Abelian subgroup         C1      NOp   1
 Largest concise Abelian subgroup C1      NOp   1
                         Standard orientation:                         
 ---------------------------------------------------------------------
 Center     Atomic      Atomic             Coordinates (Angstroms)
 Number     Number       Type             X           Y           Z
 ---------------------------------------------------------------------
      1          6           0        0.758287    0.007271    0.088795
      2          1           0        1.133882    1.022834    0.176227
      3          1           0        1.257331   -0.457527   -0.756783
      4          1           0        1.054201   -0.532271    0.984013
      5          6           0       -0.758287   -0.007271   -0.088795
      6          1           0       -1.054201    0.532270   -0.984014
      7          1           0       -1.133882   -1.022834   -0.176226
      8          1           0       -1.257331    0.457529    0.756783
 ---------------------------------------------------------------------
 Rotational constants (GHZ):          81.4786102          20.0724527          20.0724527
 Leave Link  202 at Wed Sep 11 13:50:47 2024, MaxMem=   104857600 cpu:               0.5 elap:               0.1
 (Enter /usr/local/g16/l301.exe)
 Standard basis: 6-311++G(d,p) (5D, 7F)
 Ernie: Thresh=  0.10000D-02 Tol=  0.10000D-05 Strict=F.
 There are    88 symmetry adapted cartesian basis functions of A   symmetry.
 There are    86 symmetry adapted basis functions of A   symmetry.
    86 basis functions,   126 primitive gaussians,    88 cartesian basis functions
     9 alpha electrons        9 beta electrons
       nuclear repulsion energy        42.3726234932 Hartrees.
 IExCor=    0 DFT=F Ex=HF Corr=None ExCW=0 ScaHFX=  1.000000
 ScaDFX=  1.000000  1.000000  1.000000  1.000000 ScalE2=  1.000000  1.000000
 IRadAn=      5 IRanWt=     -1 IRanGd=            0 ICorTp=0 IEmpDi=  4
 NAtoms=    8 NActive=    8 NUniq=    8 SFac= 1.00D+00 NAtFMM=   60 NAOKFM=F Big=F
 Integral buffers will be    131072 words long.
 Raffenetti 1 integral format.
 Two-electron integral symmetry is turned on.
 Leave Link  301 at Wed Sep 11 13:50:47 2024, MaxMem=   104857600 cpu:               0.5 elap:               0.1
 (Enter /usr/local/g16/l302.exe)
 NPDir=0 NMtPBC=     1 NCelOv=     1 NCel=       1 NClECP=     1 NCelD=      1
         NCelK=      1 NCelE2=     1 NClLst=     1 CellRange=     0.0.
 One-electron integrals computed using PRISM.
 One-electron integral symmetry used in STVInt
 NBasis=    86 RedAO= T EigKep=  1.49D-04  NBF=    86
 NBsUse=    86 1.00D-06 EigRej= -1.00D+00 NBFU=    86
 Leave Link  302 at Wed Sep 11 13:50:48 2024, MaxMem=   104857600 cpu:               5.4 elap:               0.5
 (Enter /usr/local/g16/l303.exe)
 DipDrv:  MaxL=1.
 Leave Link  303 at Wed Sep 11 13:50:48 2024, MaxMem=   104857600 cpu:               1.1 elap:               0.1
 (Enter /usr/local/g16/l401.exe)
 Initial guess from the checkpoint file:  "c2h6_e.chk"
 B after Tr=    -0.000000    0.000000   -0.000000
         Rot=    0.714572   -0.435809    0.436276    0.330335 Ang= -88.78 deg.
 Guess basis will be translated and rotated to current coordinates.
 JPrj=2 DoOrth=T DoCkMO=T.
 Leave Link  401 at Wed Sep 11 13:50:48 2024, MaxMem=   104857600 cpu:               3.5 elap:               0.3
 (Enter /usr/local/g16/l502.exe)
 Keep R1 ints in memory in canonical form, NReq=9532581.
 FoFCou: FMM=F IPFlag=           0 FMFlag=           0 FMFlg1=           0
         NFxFlg=           0 DoJE=F BraDBF=F KetDBF=F FulRan=T
         wScrn=  0.000000 ICntrl=       600 IOpCl=  0 I1Cent=           0 NGrid=           0
         NMat0=    1 NMatS0=   3741 NMatT0=    0 NMatD0=    1 NMtDS0=    0 NMtDT0=    0
 Symmetry not used in FoFCou.
 Two-electron integral symmetry not used.
 Closed shell SCF:
 Using DIIS extrapolation, IDIIS=  1040.
 NGot=   104857600 LenX=    97840569 LenY=    97832384
 Requested convergence on RMS density matrix=1.00D-08 within 128 cycles.
 Requested convergence on MAX density matrix=1.00D-06.
 Requested convergence on             energy=1.00D-06.
 No special actions if energy rises.

 Cycle   1  Pass 1  IDiag  1:
 E= -79.2519341253122    
 DIIS: error= 1.04D-04 at cycle   1 NSaved=   1.
 NSaved= 1 IEnMin= 1 EnMin= -79.2519341253122     IErMin= 1 ErrMin= 1.04D-04
 ErrMax= 1.04D-04  0.00D+00 EMaxC= 1.00D-01 BMatC= 5.32D-07 BMatP= 5.32D-07
 IDIUse=3 WtCom= 9.99D-01 WtEn= 1.04D-03
 Coeff-Com:  0.100D+01
 Coeff-En:   0.100D+01
 Coeff:      0.100D+01
 Gap=     0.686 Goal=   None    Shift=    0.000
 RMSDP=6.87D-06 MaxDP=1.16D-04              OVMax= 2.46D-04

 Cycle   2  Pass 1  IDiag  1:
 E= -79.2519346094825     Delta-E=       -0.000000484170 Rises=F Damp=F
 DIIS: error= 1.93D-05 at cycle   2 NSaved=   2.
 NSaved= 2 IEnMin= 2 EnMin= -79.2519346094825     IErMin= 2 ErrMin= 1.93D-05
 ErrMax= 1.93D-05  0.00D+00 EMaxC= 1.00D-01 BMatC= 1.86D-08 BMatP= 5.32D-07
 IDIUse=1 WtCom= 1.00D+00 WtEn= 0.00D+00
 Coeff-Com: -0.703D-01 0.107D+01
 Coeff:     -0.703D-01 0.107D+01
 Gap=     0.532 Goal=   None    Shift=    0.000
 RMSDP=1.67D-06 MaxDP=3.15D-05 DE=-4.84D-07 OVMax= 4.96D-05

 Cycle   3  Pass 1  IDiag  1:
 E= -79.2519346301090     Delta-E=       -0.000000020626 Rises=F Damp=F
 DIIS: error= 9.64D-06 at cycle   3 NSaved=   3.
 NSaved= 3 IEnMin= 3 EnMin= -79.2519346301090     IErMin= 3 ErrMin= 9.64D-06
 ErrMax= 9.64D-06  0.00D+00 EMaxC= 1.00D-01 BMatC= 1.75D-09 BMatP= 1.86D-08
 IDIUse=1 WtCom= 1.00D+00 WtEn= 0.00D+00
 Coeff-Com: -0.354D-01 0.180D+00 0.856D+00
 Coeff:     -0.354D-01 0.180D+00 0.856D+00
 Gap=     0.532 Goal=   None    Shift=    0.000
 RMSDP=4.05D-07 MaxDP=5.47D-06 DE=-2.06D-08 OVMax= 2.28D-05

 Cycle   4  Pass 1  IDiag  1:
 E= -79.2519346322344     Delta-E=       -0.000000002125 Rises=F Damp=F
 DIIS: error= 1.61D-06 at cycle   4 NSaved=   4.
 NSaved= 4 IEnMin= 4 EnMin= -79.2519346322344     IErMin= 4 ErrMin= 1.61D-06
 ErrMax= 1.61D-06  0.00D+00 EMaxC= 1.00D-01 BMatC= 9.61D-11 BMatP= 1.75D-09
 IDIUse=1 WtCom= 1.00D+00 WtEn= 0.00D+00
 Coeff-Com:  0.251D-02-0.553D-01 0.499D-01 0.100D+01
 Coeff:      0.251D-02-0.553D-01 0.499D-01 0.100D+01
 Gap=     0.532 Goal=   None    Shift=    0.000
 RMSDP=1.13D-07 MaxDP=2.37D-06 DE=-2.13D-09 OVMax= 5.32D-06

 Cycle   5  Pass 1  IDiag  1:
 E= -79.2519346323956     Delta-E=       -0.000000000161 Rises=F Damp=F
 DIIS: error= 4.70D-07 at cycle   5 NSaved=   5.
 NSaved= 5 IEnMin= 5 EnMin= -79.2519346323956     IErMin= 5 ErrMin= 4.70D-07
 ErrMax= 4.70D-07  0.00D+00 EMaxC= 1.00D-01 BMatC= 3.16D-12 BMatP= 9.61D-11
 IDIUse=1 WtCom= 1.00D+00 WtEn= 0.00D+00
 Coeff-Com:  0.161D-02-0.488D-02-0.454D-01-0.996D-01 0.115D+01
 Coeff:      0.161D-02-0.488D-02-0.454D-01-0.996D-01 0.115D+01
 Gap=     0.532 Goal=   None    Shift=    0.000
 RMSDP=3.30D-08 MaxDP=4.35D-07 DE=-1.61D-10 OVMax= 2.13D-06

 Cycle   6  Pass 1  IDiag  1:
[...]
     11  0.252805D-03 -0.138932D-02  0.108157D-01  0.108157D-01  0.150162D-01
     12 -0.112128D-02  0.462162D-02 -0.452604D-01  0.150162D-01 -0.224281D-01
     13 -0.112129D-02 -0.112128D-02  0.150162D-01 -0.452604D-01 -0.224281D-01
     14 -0.606248D-02 -0.606248D-02  0.530261D-02 -0.448948D-02 -0.857487D-02
     15  0.752195D-03 -0.606248D-02 -0.448948D-02 -0.448947D-02  0.206125D-01
     16 -0.606248D-02  0.752196D-03 -0.448947D-02  0.530261D-02 -0.857489D-02
     17  0.583978D-02  0.394927D-03  0.259329D-03  0.338452D-02 -0.448948D-02
     18  0.394927D-03  0.583978D-02  0.259327D-03  0.259329D-03  0.530261D-02
     19  0.583978D-02  0.583978D-02  0.338452D-02  0.259327D-03 -0.448947D-02
     20 -0.382331D-02  0.441669D-02  0.663141D-02 -0.575686D-02 -0.240561D-02
     21  0.000000D+00 -0.322993D-02  0.750595D-02 -0.750594D-02  0.000000D+00
     22  0.382331D-02  0.593381D-03  0.575686D-02 -0.663140D-02  0.240560D-02
     23 -0.441669D-02  0.382331D-02 -0.663140D-02  0.874542D-03 -0.797183D-02
     24 -0.593380D-03 -0.382331D-02 -0.575686D-02 -0.874543D-03 -0.556623D-02
     25  0.322993D-02  0.000000D+00 -0.750595D-02  0.000000D+00 -0.316062D-02
     26 -0.322993D-02  0.322993D-02  0.000000D+00  0.750595D-02  0.316062D-02
     27  0.593381D-03 -0.441669D-02  0.874543D-03  0.575686D-02  0.556623D-02
     28  0.441669D-02 -0.593380D-03 -0.874543D-03  0.663141D-02  0.797183D-02
               11            12            13            14            15 
     11  0.585320D-01
     12 -0.452604D-01  0.115973D+00
     13 -0.452604D-01 -0.224281D-01  0.115973D+00
     14 -0.448947D-02 -0.857489D-02  0.206125D-01  0.115973D+00
     15  0.530261D-02 -0.857487D-02 -0.857489D-02 -0.224281D-01  0.115973D+00
     16 -0.448948D-02  0.206125D-01 -0.857487D-02 -0.224281D-01 -0.224281D-01
     17  0.259327D-03  0.530261D-02 -0.448947D-02 -0.452604D-01 -0.452604D-01
     18  0.338452D-02 -0.448947D-02 -0.448948D-02 -0.452604D-01  0.150162D-01
     19  0.259329D-03 -0.448948D-02  0.530261D-02  0.150162D-01 -0.452604D-01
     20 -0.874543D-03  0.797183D-02 -0.556623D-02 -0.240561D-02 -0.556623D-02
     21  0.000000D+00  0.316062D-02 -0.316062D-02  0.316062D-02  0.000000D+00
     22  0.874543D-03  0.556623D-02 -0.797184D-02 -0.797183D-02  0.556623D-02
     23  0.575686D-02  0.240560D-02  0.556623D-02  0.240560D-02 -0.797183D-02
     24  0.663141D-02 -0.240561D-02  0.797183D-02  0.797183D-02 -0.240561D-02
     25  0.750595D-02  0.000000D+00  0.316062D-02 -0.316062D-02  0.316062D-02
     26 -0.750594D-02 -0.316062D-02  0.000000D+00  0.000000D+00 -0.316062D-02
     27 -0.663140D-02 -0.797184D-02  0.240560D-02  0.556623D-02  0.240560D-02
     28 -0.575686D-02 -0.556623D-02 -0.240561D-02 -0.556623D-02  0.797183D-02
               16            17            18            19            20 
     16  0.115973D+00
     17  0.150162D-01  0.585320D-01
     18 -0.452604D-01  0.108157D-01  0.585320D-01
     19 -0.452604D-01  0.108157D-01  0.108157D-01  0.585320D-01
     20  0.797183D-02 -0.575686D-02  0.663141D-02 -0.874543D-03  0.167973D-01
     21 -0.316062D-02  0.750595D-02  0.000000D+00 -0.750594D-02  0.415502D-02
     22  0.240560D-02  0.874543D-03 -0.663140D-02  0.575686D-02  0.466442D-02
     23  0.556623D-02 -0.663140D-02  0.575686D-02  0.874543D-03  0.466442D-02
     24 -0.556623D-02  0.663141D-02 -0.874543D-03 -0.575686D-02 -0.797787D-02
     25  0.000000D+00  0.000000D+00 -0.750594D-02  0.750595D-02 -0.746847D-02
     26  0.316062D-02 -0.750594D-02  0.750595D-02  0.000000D+00  0.415502D-02
     27 -0.797184D-02  0.575686D-02  0.874543D-03 -0.663140D-02 -0.848726D-02
     28 -0.240561D-02 -0.874543D-03 -0.575686D-02  0.663141D-02 -0.797787D-02
               21            22            23            24            25 
     21  0.157785D-01
     22  0.415502D-02  0.167973D-01
     23 -0.746847D-02 -0.797787D-02  0.167973D-01
     24  0.415502D-02 -0.848726D-02  0.466442D-02  0.167973D-01
     25 -0.746847D-02  0.415502D-02  0.415502D-02  0.415502D-02  0.157785D-01
     26 -0.746847D-02 -0.746847D-02  0.415502D-02 -0.746847D-02 -0.746847D-02
     27  0.415502D-02 -0.797787D-02 -0.797787D-02  0.466442D-02 -0.746847D-02
     28 -0.746847D-02  0.466442D-02 -0.848726D-02 -0.797787D-02  0.415502D-02
               26            27            28 
     26  0.157785D-01
     27  0.415502D-02  0.167973D-01
     28  0.415502D-02  0.466442D-02  0.167973D-01
 Leave Link  716 at Wed Sep 11 13:50:59 2024, MaxMem=   104857600 cpu:               3.2 elap:               0.3
 (Enter /usr/local/g16/l103.exe)

 GradGradGradGradGradGradGradGradGradGradGradGradGradGradGradGradGradGrad
 Berny optimization.
 Red2BG is reusing G-inverse.
 Internal  Forces:  Max     0.000037022 RMS     0.000016035
 Search for a local minimum.
 Step number   1 out of a maximum of    2
 All quantities printed in internal units (Hartrees-Bohrs-Radians)
 Second derivative matrix not updated -- analytic derivatives used.
 ITU=  0
     Eigenvalues ---    0.00252   0.05132   0.05132   0.05391   0.05391
     Eigenvalues ---    0.13687   0.13687   0.13987   0.14214   0.20092
     Eigenvalues ---    0.20092   0.33227   0.35772   0.35772   0.36056
     Eigenvalues ---    0.36056   0.37079   0.37376
 Angle between quadratic step and forces=  22.36 degrees.
 Linear search not attempted -- first point.
 Iteration  1 RMS(Cart)=  0.00013119 RMS(Int)=  0.00000001
 Iteration  2 RMS(Cart)=  0.00000001 RMS(Int)=  0.00000001
 ITry= 1 IFail=0 DXMaxC= 2.45D-04 DCOld= 1.00D+10 DXMaxT= 3.00D-01 DXLimC= 3.00D+00 Rises=F
 Variable       Old X    -DE/DX   Delta X   Delta X   Delta X     New X
                                 (Linear)    (Quad)   (Total)
    R1        2.05284  -0.00001   0.00000  -0.00002  -0.00002   2.05282
    R2        2.05284  -0.00001   0.00000  -0.00002  -0.00002   2.05282
    R3        2.05284  -0.00001   0.00000  -0.00002  -0.00002   2.05282
    R4        2.88562  -0.00004   0.00000  -0.00003  -0.00003   2.88559
    R5        2.05284  -0.00001   0.00000  -0.00002  -0.00002   2.05282
    R6        2.05284  -0.00001   0.00000  -0.00002  -0.00002   2.05282
    R7        2.05284  -0.00001   0.00000  -0.00002  -0.00002   2.05282
    A1        1.87949   0.00002   0.00000   0.00014   0.00014   1.87963
    A2        1.87949   0.00002   0.00000   0.00014   0.00014   1.87963
    A3        1.94083  -0.00002   0.00000  -0.00013  -0.00013   1.94070
    A4        1.87949   0.00002   0.00000   0.00014   0.00014   1.87963
    A5        1.94083  -0.00002   0.00000  -0.00013  -0.00013   1.94070
    A6        1.94083  -0.00002   0.00000  -0.00013  -0.00013   1.94070
    A7        1.94083  -0.00002   0.00000  -0.00013  -0.00013   1.94070
    A8        1.94083  -0.00002   0.00000  -0.00013  -0.00013   1.94070
    A9        1.94083  -0.00002   0.00000  -0.00013  -0.00013   1.94070
   A10        1.87949   0.00002   0.00000   0.00014   0.00014   1.87963
   A11        1.87949   0.00002   0.00000   0.00014   0.00014   1.87963
   A12        1.87949   0.00002   0.00000   0.00014   0.00014   1.87963
    D1        1.04720  -0.00000   0.00000  -0.00000  -0.00000   1.04720
    D2       -3.14159  -0.00000   0.00000  -0.00000  -0.00000  -3.14159
    D3       -1.04720  -0.00000   0.00000  -0.00000  -0.00000  -1.04720
    D4       -1.04720  -0.00000   0.00000  -0.00000  -0.00000  -1.04720
    D5        1.04720  -0.00000   0.00000  -0.00000  -0.00000   1.04720
    D6       -3.14159  -0.00000   0.00000  -0.00000  -0.00000  -3.14159
    D7       -3.14159  -0.00000   0.00000  -0.00000  -0.00000   3.14159
    D8       -1.04720  -0.00000   0.00000  -0.00000  -0.00000  -1.04720
    D9        1.04720  -0.00000   0.00000  -0.00000  -0.00000   1.04720
         Item               Value     Threshold  Converged?
 Maximum Force            0.000037     0.000450     YES
 RMS     Force            0.000016     0.000300     YES
 Maximum Displacement     0.000245     0.001800     YES
 RMS     Displacement     0.000131     0.001200     YES
 Predicted change in Energy=-1.836957D-08
 Optimization completed.
    -- Stationary point found.
                           ----------------------------
                           !   Optimized Parameters   !
                           ! (Angstroms and Degrees)  !
 --------------------------                            --------------------------
 ! Name  Definition              Value          Derivative Info.                !
 --------------------------------------------------------------------------------
 ! R1    R(1,2)                  1.0863         -DE/DX =    0.0                 !
 ! R2    R(1,3)                  1.0863         -DE/DX =    0.0                 !
 ! R3    R(1,4)                  1.0863         -DE/DX =    0.0                 !
 ! R4    R(1,5)                  1.527          -DE/DX =    0.0                 !
 ! R5    R(5,6)                  1.0863         -DE/DX =    0.0                 !
 ! R6    R(5,7)                  1.0863         -DE/DX =    0.0                 !
 ! R7    R(5,8)                  1.0863         -DE/DX =    0.0                 !
 ! A1    A(2,1,3)              107.6868         -DE/DX =    0.0                 !
 ! A2    A(2,1,4)              107.6868         -DE/DX =    0.0                 !
 ! A3    A(2,1,5)              111.2016         -DE/DX =    0.0                 !
 ! A4    A(3,1,4)              107.6868         -DE/DX =    0.0                 !
 ! A5    A(3,1,5)              111.2016         -DE/DX =    0.0                 !
 ! A6    A(4,1,5)              111.2016         -DE/DX =    0.0                 !
 ! A7    A(1,5,6)              111.2016         -DE/DX =    0.0                 !
 ! A8    A(1,5,7)              111.2016         -DE/DX =    0.0                 !
 ! A9    A(1,5,8)              111.2016         -DE/DX =    0.0                 !
 ! A10   A(6,5,7)              107.6868         -DE/DX =    0.0                 !
 ! A11   A(6,5,8)              107.6868         -DE/DX =    0.0                 !
 ! A12   A(7,5,8)              107.6868         -DE/DX =    0.0                 !
 ! D1    D(2,1,5,6)             60.0001         -DE/DX =    0.0                 !
 ! D2    D(2,1,5,7)           -179.9999         -DE/DX =    0.0                 !
 ! D3    D(2,1,5,8)            -59.9999         -DE/DX =    0.0                 !
 ! D4    D(3,1,5,6)            -59.9999         -DE/DX =    0.0                 !
 ! D5    D(3,1,5,7)             60.0001         -DE/DX =    0.0                 !
 ! D6    D(3,1,5,8)           -179.9999         -DE/DX =    0.0                 !
 ! D7    D(4,1,5,6)            180.0001         -DE/DX =    0.0                 !
 ! D8    D(4,1,5,7)            -59.9999         -DE/DX =    0.0                 !
 ! D9    D(4,1,5,8)             60.0001         -DE/DX =    0.0                 !
 --------------------------------------------------------------------------------
 GradGradGradGradGradGradGradGradGradGradGradGradGradGradGradGradGradGrad

 Leave Link  103 at Wed Sep 11 13:51:01 2024, MaxMem=   104857600 cpu:              12.3 elap:               1.2
 (Enter /usr/local/g16/l9999.exe)
 Dipole is zero, so no output in dipole orientation.

 ----------------------------------------------------------------------

 Electric dipole moment (input orientation):
 (Debye = 10**-18 statcoulomb cm , SI units = C m)
                  (au)            (Debye)         (10**-30 SI)
   Tot        0.000000D+00      0.000000D+00      0.000000D+00
   x          0.000000D+00      0.000000D+00      0.000000D+00
   y          0.000000D+00      0.000000D+00      0.000000D+00
   z          0.000000D+00      0.000000D+00      0.000000D+00

 Dipole polarizability, Alpha (input orientation).
 (esu units = cm**3 , SI units = C**2 m**2 J**-1)
 Alpha(0;0):
               (au)            (10**-24 esu)      (10**-40 SI)
   iso        0.250216D+02      0.370781D+01      0.412550D+01
   aniso      0.194400D+01      0.288071D+00      0.320522D+00
   xx         0.248056D+02      0.367581D+01      0.408989D+01
   yx        -0.748246D+00     -0.110879D+00     -0.123369D+00
   yy         0.256696D+02      0.380384D+01      0.423234D+01
   zx         0.305470D+00      0.452660D-01      0.503652D-01
   zy        -0.529089D+00     -0.784029D-01     -0.872350D-01
   zz         0.245896D+02      0.364380D+01      0.405427D+01

 ----------------------------------------------------------------------
 1\1\GINC-SV1-C724\Freq\RHF\6-311++G(d,p)\C2H6\LME\11-Sep-2024\0\\#P Ge
 om=AllCheck Guess=TCheck SCRF=Check GenChk RHF/6-311++G(d,p) Freq\\Tit
 le Card Required\\0,1\C,-0.00306267,0.0053045022,-0.0021654016\H,0.013
 2537849,-0.0231535702,1.0836562842\H,1.0261554423,-0.0230542484,-0.348
 5621097\H,-0.4929980503,-0.9002041465,-0.3487230905\C,-0.7229009207,1.
 2521002263,-0.5111670642\H,-0.2329646994,2.1576088752,-0.1646105646\H,
 -0.7392186319,1.2805575686,-1.5969887505\H,-1.7521186136,1.2804597071,
 -0.164769171\\Version=ES64L-G16RevA.03\State=1-A\HF=-79.2519346\RMSD=1
 .079e-09\RMSF=1.439e-05\ZeroPoint=0.0785762\Thermal=0.0819811\Dipole=0
 .,0.,0.\DipoleDeriv=0.1503864,0.029754,-0.0121469,0.0297539,0.1160296,
 0.0210392,-0.012147,0.0210392,0.1589757,0.0490141,0.0222807,-0.0019684
 ,0.0222845,0.0232831,0.0034598,-0.022745,0.0394432,-0.2140944,-0.19265
 36,0.0445931,0.0626559,0.0106651,0.0232841,0.0198621,0.0834301,0.00787
 08,0.0275723,-0.0067469,-0.0966277,-0.0485405,-0.0627036,-0.1625968,-0
 .0443611,-0.0485381,-0.0683532,0.0275465,0.1503864,0.0297539,-0.012147
 ,0.029754,0.1160296,0.0210392,-0.0121469,0.0210392,0.1589757,-0.006747
 1,-0.0966279,-0.0485404,-0.0627037,-0.1625968,-0.0443609,-0.0485381,-0
 .0683529,0.0275467,0.0490141,0.0222807,-0.0019687,0.0222844,0.0232831,
 0.0034596,-0.0227453,0.039443,-0.2140944,-0.1926534,0.0445933,0.062656
 1,0.0106653,0.0232841,0.0198621,0.0834304,0.0078707,0.0275721\Polar=24
 .8055668,-0.7482464,25.6695665,0.30547,-0.5290893,24.5895659\PolarDeri
 v=-5.8462647,0.9530563,5.3028811,2.8812975,-0.2434114,0.1809994,-0.484
 5784,4.4728638,1.4233466,-0.2434103,3.1633407,-0.3111008,3.4682064,-0.
 2434097,3.7502535,-0.6490207,1.1265322,-7.4747037,0.8517567,-0.3225672
 ,-0.6444651,1.4085213,-0.057591,0.1326839,0.1428039,-0.3758256,-0.5026
 028,-0.0576487,1.475085,-0.2310966,0.6973542,-0.1340127,0.8521811,0.71
 78422,-1.2446809,9.8254485,9.0996934,-1.2018733,0.5886066,-1.7369178,0
 .1768268,1.150051,-0.2251907,1.2654915,-0.5021607,0.0724818,-0.8458345
 ,0.1374845,-2.0516167,0.2532132,-0.8915224,2.0155792,-0.3647204,-0.526
 3287,-1.4111458,-2.1936253,-2.8016861,-0.960815,-0.3758866,-0.6943205,
 -1.1191504,-2.2942931,-7.6344605,-0.271485,-1.6229457,-0.9276121,-0.96
 23141,-0.3758531,-1.9817229,-0.692087,-1.92835,-0.5270971,5.8462559,-0
 .9530625,-5.3028861,-2.8813002,0.2434119,-0.1809864,0.4845704,-4.47286
 59,-1.4233467,0.243413,-3.163338,0.3111083,-3.468213,0.2434136,-3.7502
 466,0.6490313,-1.126526,7.474704,1.4111508,2.1936284,2.8016903,0.96081
 33,0.3758868,0.6943189,1.1191534,2.2942972,7.6344606,0.271484,1.622940
 2,0.9276096,0.9623144,0.3758508,1.9817172,0.6920866,1.9283468,0.527092
 3,-0.85176,0.3225665,0.644466,-1.408522,0.0575914,-0.1326923,-0.142803
 ,0.3758235,0.5026003,0.0576491,-1.4750843,0.2310917,-0.6973542,0.13401
 26,-0.8521814,-0.7178494,1.2446766,-9.8254488,-9.0996863,1.2018771,-0.
 5886068,1.7369228,-0.1768278,-1.150054,0.2251948,-1.2654914,0.5021632,
 -0.0724838,0.8458367,-0.1374845,2.0516229,-0.2532147,0.8915216,-2.0155
 822,0.3647217,0.5263335\HyperPolar=0.0000343,0.0000265,0.0000114,0.,0.
 0000161,-0.0000094,-0.0000161,-0.0000456,-0.0000265,0.\Quadrupole=0.05
 8998,-0.1769945,0.1179965,0.2043758,-0.083436,0.1445152\PG=C01 [X(C2H6
 )]\NImag=0\\0.60529884,0.03470265,0.56522772,-0.01416728,0.02453844,0.
 61531667,-0.05756715,-0.00048605,-0.00127250,0.05542541,-0.00048581,-0
 .05700696,0.00225437,-0.00247943,0.05828934,-0.00257236,0.00450560,-0.
 33290728,0.00321047,-0.00561679,0.36194311,-0.30354962,0.00406230,0.08
 435201,0.00228441,-0.00026299,0.00066443,0.32993404,0.00193965,-0.0570
 0626,-0.00120089,0.00003376,-0.00076217,-0.00029100,-0.00609553,0.0582
 8864,0.08565171,-0.00195111,-0.08692551,0.03613662,0.00013207,-0.01072
 018,-0.09379428,-0.00047516,0.08743519,-0.11601635,-0.10629311,-0.0411
 4557,-0.00009705,0.00141514,-0.00007833,-0.01527959,-0.02897308,-0.012
 81581,0.12089108,-0.10417070,-0.24451280,-0.07368514,0.00111520,0.0016
 2512,-0.00071961,-0.00030852,0.00162200,0.00129014,0.11455136,0.267301
 68,-0.04114542,-0.07518617,-0.08695224,-0.01817886,-0.03122903,-0.0107
 2602,0.00528668,0.01173937,0.00445965,0.04731918,0.08102845,0.08746510
 ,-0.12378096,0.05244982,-0.02141254,0.00026387,-0.00049527,0.00051542,
 -0.01474909,0.03140994,-0.01402736,0.01010044,-0.01535027,0.00715781,0
 .60529885,0.05244982,-0.18434473,0.03708755,-0.00049163,0.00082960,-0.
 00089084,-0.00100530,0.00083267,-0.00016804,0.01706133,-0.02401924,0.0
 1206456,0.03470265,0.56522772,-0.02141251,0.03708757,-0.10863994,-0.01
 933479,0.03348812,-0.00997129,0.00582060,-0.01162469,0.00503860,0.0071
 6005,-0.01085776,0.00504098,-0.01416729,0.02453844,0.61531668,0.010100
 45,0.01706134,0.00716004,0.00055979,-0.00117611,0.00041257,0.00100280,
 -0.00077941,0.00071371,-0.00116112,0.00419389,-0.00156580,-0.11601654,
 -0.10629330,-0.04114550,0.12089131,-0.01535028,-0.02401924,-0.01085774
 ,-0.00050822,0.00117728,0.00068582,0.00047726,0.00117742,-0.00070754,0
 .00419388,-0.00437146,0.00296565,-0.10417088,-0.24451280,-0.07368489,0
 .11455155,0.26730169,0.00715782,0.01206454,0.00504097,0.00087028,-0.00
 041095,0.00060477,0.00025614,-0.00097188,0.00016163,-0.00156580,0.0029
 6564,-0.00005387,-0.04114536,-0.07518591,-0.08695205,0.04731910,0.0810
 2818,0.08746488,0.00026386,-0.00049165,-0.01933478,-0.00116309,0.00383
 885,-0.00135189,0.00029380,-0.00102248,-0.00007933,0.00055979,-0.00050
 822,0.00087028,-0.05756716,-0.00048605,-0.00127283,-0.00009707,0.00111
 519,-0.01817889,0.05542541,-0.00049524,0.00082961,0.03348813,0.0038388
 5,-0.00559571,0.00234135,-0.00035437,0.00144349,-0.00095914,-0.0011761
 1,0.00117729,-0.00041095,-0.00048581,-0.05700694,0.00225417,0.00141510
 ,0.00162509,-0.03122903,-0.00247943,0.05828934,0.00051541,-0.00089085,
 -0.00997129,-0.00135189,0.00234135,0.00117235,-0.00080030,-0.00001452,
 0.00060454,0.00041257,0.00068582,0.00060477,-0.00257267,0.00450542,-0.
 33290729,-0.00007835,-0.00071962,-0.01072597,0.00321083,-0.00561658,0.
 36194311,-0.01474909,-0.00100530,0.00582061,0.00029381,-0.00035437,-0.
 00080030,0.00006325,0.00348715,-0.00178527,0.00100280,0.00047727,0.000
 25613,-0.30354941,0.00406247,0.08435227,-0.01527962,-0.00030851,0.0052
 8671,0.00228445,-0.00026299,0.00066441,0.32993381,0.03140992,0.0008326
 6,-0.01162472,-0.00102248,0.00144350,-0.00001453,0.00348714,-0.0055957
 8,0.00283877,-0.00077941,0.00117742,-0.00097188,0.00193983,-0.05700628
 ,-0.00120096,-0.02897307,0.00162202,0.01173940,0.00003379,-0.00076217,
 -0.00029101,-0.00609573,0.05828864,-0.01402737,-0.00016802,0.00503862,
 -0.00007933,-0.00095914,0.00060454,-0.00178528,0.00283878,-0.00005392,
 0.00071371,-0.00070754,0.00016162,0.08565198,-0.00195118,-0.08692571,-
 0.01281577,0.00129015,0.00445965,0.03613661,0.00013205,-0.01072022,-0.
 09379456,-0.00047509,0.08743541\\-0.00001451,0.00002512,-0.00001026,0.
 00001090,-0.00001889,0.00000609,0.00000938,-0.00001889,0.00000826,0.00
 001167,-0.00001757,0.00000825,0.00001450,-0.00002512,0.00001026,-0.000
 01167,0.00001757,-0.00000826,-0.00001091,0.00001889,-0.00000609,-0.000
 00938,0.00001889,-0.00000825\\\@


 IT IS UNWORTHY OF EXCELLENT MEN TO LOSE HOURS LIKE SLAVES IN THE LABOR
 OF CALCULATION WHICH COULD BE SAFELY RELEGATED TO ANYONE ELSE
 IF A MACHINE WERE USED.
    -- G.W. VON LEIBNIZ
 Job cpu time:       0 days  0 hours  1 minutes 39.9 seconds.
 Elapsed time:       0 days  0 hours  0 minutes  9.5 seconds.
 File lengths (MBytes):  RWF=     10 Int=      0 D2E=      0 Chk=      2 Scr=      1
 Normal termination of Gaussian 16 at Wed Sep 11 13:51:01 2024.
