
 Working directory              : /tmp/lme/molpro.WezGndCAOl/
 Global scratch directory       : /tmp/lme/molpro.WezGndCAOl/
 Wavefunction directory         : /home/lme/wfu/
 Main file repository           : /tmp/lme/molpro.WezGndCAOl/

 id        : liedlgroup

 Nodes     nprocs
 sv1-c724     6
 GA implementation: MPI file
 GA implementation (serial work in mppx): MPI file

 Using customized tuning parameters: mindgm=1; mindgv=20; mindgc=4; mindgr=1; noblas=0; minvec=7
 default implementation of scratch files=sf  


 Variables initialized (1042), CPU time= 0.00 sec
 ***,Carbonic Acid dimer
 
 memory, 200, m                                                                  ! Memory Requirements
 orient,mass
 geometry = {
 C, -1.89055153, -0.01943090, 0.00000420
 O, -1.22046114, -1.04749274, 0.00016194
 O, -3.22568405, -0.02670598, -0.00005979
 H, -3.48378183, -0.95718879, 0.00002064
 O, -1.43937862,  1.21103529, -0.00012123
 H, -0.45022824,  1.16939629, -0.00002301
 C,  1.89055147,  0.01943090, 0.00001287
 O,  1.22046165,  1.04749309, 0.00018907
 O,  3.22568404,  0.02670549, -0.00007819
 H, 3.48378219,  0.95718819, -0.00000657
 O, 1.43937819, -1.21103509, -0.00010454
 H, 0.45022763, -1.16939614, 0.00000840
 }
 
 mass, iso
 basis=6-311g(d,p)
 
 {hf
 start,atden}
 
 optg
 {frequencies, symm=auto, print=0,analytical}
 put,molden,carbonic_acid_dimer.molden
 
 
 Commands initialized (847), CPU time= 0.01 sec, 718 directives.
 Default parameters read. Elapsed time= 0.12 sec

 Checking input...
 Passed
1


                                         ***  PROGRAM SYSTEM MOLPRO  ***
                                       Copyright, TTI GmbH Stuttgart, 2015
                                    Version 2024.1 linked Wed Jan 31 11:42:09 2024


 **********************************************************************************************************************************
 LABEL *   Carbonic Acid dimer                                                                                                                                           
  (6 PROC) 64 bit mpp version                                                            DATE: 25-Sep-24          TIME: 10:32:56  
 **********************************************************************************************************************************

 SHA1:             675817fde4514a4a933b69e420913a90cee4ef91
 **********************************************************************************************************************************

 Memory per process:       200 MW
 Total memory per node:   1200 MW

 GA preallocation disabled
 GA check disabled

 Variable memory set to 200.0 MW

 ZCENTRE=MASS


 Geometry recognized as XYZ



 Using masses of most abundant isotopes

 **********************************************************************************************************************************
 SETTING BASIS          =    6-311G(D,P)


 Recomputing integrals since basis changed


 Using spherical harmonics

 Library entry C      S 6-311G               selected for orbital group  1
 Library entry C      P 6-311G               selected for orbital group  1
 Library entry C      D 6-311G*              selected for orbital group  1
 Library entry O      S 6-311G               selected for orbital group  2
 Library entry O      P 6-311G               selected for orbital group  2
 Library entry O      D 6-311G*              selected for orbital group  2
 Library entry H      S 6-311G               selected for orbital group  3
 Library entry H      P 6-311G**             selected for orbital group  3


 PROGRAM * SEWARD (Integral evaluation for generally contracted gaussian basis sets)     Author: Roland Lindh, 1990

 Geometry written to block  1 of record 700

 Orientation using atomic masses  
 Molecule type: Asymmetric top
 Rotational constants:       0.9065093      0.7846449      5.8367165 GHz

 Point group  C1  



 ATOMIC COORDINATES

 NR  ATOM    CHARGE       X              Y              Z

   1  C       6.00   -0.078965182    0.000008494   -3.571940573
   2  O       8.00   -2.006609961    0.000307801   -2.282767429
   3  O       8.00   -0.122548695   -0.000112040   -6.094636373
   4  H       1.00   -1.886551195    0.000041303   -6.561542636
   5  O       8.00    2.256198810   -0.000230353   -2.746904515
   6  H       1.00    2.199622816   -0.000044969   -0.876881389
   7  C       6.00    0.078965165    0.000023748    3.571940455
   8  O       8.00    2.006610618    0.000355496    2.282768380
   9  O       8.00    0.122547753   -0.000148721    6.094636360
  10  H       1.00    1.886550054   -0.000014730    6.561543325
  11  O       8.00   -2.256198458   -0.000196306    2.746903693
  12  H       1.00   -2.199622561    0.000017344    0.876880229

 Bond lengths in Bohr (Angstrom)

 1-2  2.319004501  1-3  2.523072261  1-5  2.476625815  3-4  1.824748285  5-6  1.870878769
     ( 1.227164334)     ( 1.335152342)     ( 1.310573941)     ( 0.965615208)     ( 0.990026409)

  7- 8  2.319004472   7- 9  2.523072354   7-11  2.476625699   9-10  1.824748270  11-12  1.870879108
       ( 1.227164318)       ( 1.335152391)       ( 1.310573880)       ( 0.965615200)       ( 0.990026588)

 Bond angles

  1-3-4  105.81517548   1-5-6  107.72589961   2-1-3  122.78409724   2-1-5  126.76731956

  3- 1- 5  110.44858320   7- 9-10  105.81517727   7-11-12  107.72592108   8- 7- 9  122.78408719

  8- 7-11  126.76733256   9- 7-11  110.44858025

 NUCLEAR CHARGE:                   64
 NUMBER OF PRIMITIVE AOS:         288
 NUMBER OF SYMMETRY AOS:          280
 NUMBER OF CONTRACTIONS:          168   (  168A   )
 NUMBER OF INNER CORE ORBITALS:     0   (    0A   )
 NUMBER OF OUTER CORE ORBITALS:     8   (    8A   )
 NUMBER OF VALENCE ORBITALS:       36   (   36A   )


 NUCLEAR REPULSION ENERGY  389.42822828


 Eigenvalues of metric

         1 0.725E-02 0.766E-02 0.827E-02 0.831E-02 0.962E-02 0.964E-02 0.195E-01 0.243E-01


 Contracted 2-electron integrals neglected if value below      1.0D-11
 AO integral compression algorithm  1   Integral accuracy      1.0D-11

     159.908 MB (compressed) written to integral file ( 19.6%)

     Node minimum: 17.564 MB, node maximum: 33.292 MB


 NUMBER OF SORTED TWO-ELECTRON INTEGRALS:   16800966.     BUFFER LENGTH:  32768
 NUMBER OF SEGMENTS:   2  SEGMENT LENGTH:   15987516      RECORD LENGTH: 524288

 Memory used in sort:      16.54 MW

 SORT1 READ   102193132. AND WROTE     6808909. INTEGRALS IN     21 RECORDS. CPU TIME:     1.22 SEC, REAL TIME:     1.29 SEC
 SORT2 READ    40965064. AND WROTE   100770306. INTEGRALS IN    762 RECORDS. CPU TIME:     0.28 SEC, REAL TIME:     0.33 SEC

 Node minimum:    16789136.  Node maximum:    16800966. integrals

 OPERATOR DM      FOR CENTER  0  COORDINATES:    0.000000    0.000000    0.000000


 **********************************************************************************************************************************
 DATASETS  * FILE   NREC   LENGTH (MB)   RECORD NAMES
              1      18       29.81       500      610      700      900      950      970     1000      129      960     1100   
                                          VAR    BASINP    GEOM    SYMINP    ZMAT    AOBASIS   BASIS     P2S    ABASIS      S 
                                         1400     1410     1200     1210     1080     1600     1650     1700   
                                           T        V       H0       H01     AOSYM     SMH    MOLCAS    OPER   

 PROGRAMS   *        TOTAL       INT
 CPU TIMES  *         2.58      2.37
 REAL TIME  *         2.90 SEC
 DISK USED  *        30.35 MB (local),      802.99 MB (total)
 GA USED    *         0.00 MB       (max)       0.00 MB       (current)
 **********************************************************************************************************************************


 Program * Restricted Hartree-Fock

 Orbital guess generated from atomic densities.

 Initial occupancy:  32

 NELEC=   64   SYM=1   MS2= 0   THRE=1.0D-08   THRD=1.0D-06   THRG=1.0D-06  HFMA2=F  DIIS_START=2   DIIS_MAX=10   DIIS_INCORE=F

 Level shifts:    0.00 (CLOSED)    0.00 (OPEN)    0.30 (GAP_MIN)

 ITER           ETOT              DE          GRAD        DDIFF     DIIS  NEXP   TIME(IT)  TIME(TOT)  DIAG
   1     -527.26609884    -527.26609884     0.00D+00     0.42D-01     0     0       0.13      0.30    start
   2     -527.41019866      -0.14409981     0.80D-02     0.63D-02     1     0       0.15      0.45    diag
   3     -527.47702488      -0.06682623     0.48D-02     0.23D-02     2     0       0.14      0.59    diag
   4     -527.47898617      -0.00196128     0.62D-03     0.48D-03     3     0       0.15      0.74    diag
   5     -527.47928595      -0.00029978     0.25D-03     0.19D-03     4     0       0.14      0.88    diag
   6     -527.47933738      -0.00005143     0.86D-04     0.70D-04     5     0       0.14      1.02    diag
   7     -527.47934464      -0.00000727     0.25D-04     0.32D-04     6     0       0.14      1.16    diag
   8     -527.47934522      -0.00000058     0.69D-05     0.95D-05     7     0       0.14      1.30    fixocc
   9     -527.47934528      -0.00000006     0.26D-05     0.28D-05     8     0       0.15      1.45    diag
  10     -527.47934529      -0.00000001     0.95D-06     0.13D-05     9     0       0.13      1.58    diag/orth
  11     -527.47934529      -0.00000000     0.33D-06     0.33D-06     9     0       0.14      1.72    diag
  12     -527.47934529      -0.00000000     0.96D-07     0.81D-07     0     0       0.15      1.87    diag

 Final occupancy:  32

 !RHF STATE 1.1 Energy               -527.479345292647
  RHF One-electron energy           -1499.509125763992
  RHF Two-electron energy             582.601552196124
  RHF Kinetic energy                  526.972923206221
  RHF Nuclear energy                  389.428228275221
  RHF Virial quotient                  -1.000961002101

 !RHF STATE 1.1 Dipole moment          -0.00000049    -0.00001165    -0.00000162
 Dipole moment /Debye                  -0.00000124    -0.00002960    -0.00000412

 Orbital energies:

           1.1          2.1          3.1          4.1          5.1          6.1          7.1          8.1          9.1         10.1
    -20.632836   -20.632836   -20.615612   -20.615612   -20.570927   -20.570926   -11.465465   -11.465464    -1.534831    -1.528727

          11.1         12.1         13.1         14.1         15.1         16.1         17.1         18.1         19.1         20.1
     -1.420684    -1.418140    -1.388729    -1.381123    -0.917524    -0.899580    -0.784756    -0.757966    -0.745485    -0.734502

          21.1         22.1         23.1         24.1         25.1         26.1         27.1         28.1         29.1         30.1
     -0.697810    -0.692327    -0.682300    -0.664184    -0.624005    -0.594021    -0.552310    -0.549981    -0.510146    -0.502356

          31.1         32.1         33.1         34.1
     -0.501611    -0.500211     0.145067     0.150075


 HOMO     32.1    -0.500211 =     -13.6114eV
 LUMO     33.1     0.145067 =       3.9475eV
 LUMO-HOMO         0.645278 =      17.5589eV

 Orbitals saved in record  2100.2


 **********************************************************************************************************************************
 DATASETS  * FILE   NREC   LENGTH (MB)   RECORD NAMES
              1      18       29.81       500      610      700      900      950      970     1000      129      960     1100   
                                          VAR    BASINP    GEOM    SYMINP    ZMAT    AOBASIS   BASIS     P2S    ABASIS      S 
                                         1400     1410     1200     1210     1080     1600     1650     1700   
                                           T        V       H0       H01     AOSYM     SMH    MOLCAS    OPER   

              2       4        1.01       700     1000      520     2100   
                                         GEOM     BASIS   MCVARS     RHF  

 PROGRAMS   *        TOTAL    HF-SCF       INT
 CPU TIMES  *         4.45      1.87      2.37
 REAL TIME  *         4.88 SEC
 DISK USED  *        32.87 MB (local),      818.09 MB (total)
 GA USED    *         0.00 MB       (max)       0.00 MB       (current)
 **********************************************************************************************************************************


 PROGRAM * OPT (Geometry optimization)     Authors: F. Eckert and H.-J. Werner


 BFGS update of hessian

 *** Long output written to logfile /home/lme/Theoretische_Chemie/Nomodeco/clusters_nomodeco/carbonic_acid/carbonic_acid_dimer.log ***


 Geometry optimization using default procedure for command HF-SCF

 Geometry written to block  1 of record 700

 PQS Optimization using delocalized internal coordinates

 Point group c1. Number of degrees of freedom:   30

 ITER.   ENERGY(OLD)    ENERGY(NEW)      DE          GRADMAX     GRADNORM    GRADRMS     STEPMAX     STEPLEN     STEPRMS   CPU-time
   1  -527.47934529  -527.48481394    -0.00546865  0.05717696  0.10515336  0.01919829  0.10991188  0.21664309  0.03955343      6.01
   2  -527.48481394  -527.48128441     0.00352953  0.05060170  0.05799631  0.01058863  0.15809756  0.18611218  0.03722244     12.19
   3  -527.48128441  -527.48735779    -0.00607338  0.14161508  0.15919789  0.02906542  0.11697032  0.14515704  0.02846764     18.36
   4  -527.48735779  -527.48803086    -0.00067307  0.02994621  0.03256245  0.00594506  0.02284111  0.04436370  0.00823813     24.23
   5  -527.48803086  -527.48706747     0.00096338  0.01820906  0.01961088  0.00358044  0.11953535  0.20158484  0.03680419     30.60
   6  -527.48706747  -527.48095821     0.00610927  0.01922311  0.02673313  0.00488078  0.26524967  0.42953519  0.07842204     36.88
   7  -527.48095821  -527.48469861    -0.00374041  0.13201209  0.13828841  0.02524789  0.11826908  0.17742937  0.03239402     42.96
   8  -527.48469861  -527.48619498    -0.00149637  0.01646425  0.03098777  0.00565757  0.24722502  0.43466660  0.07935890     49.22
   9  -527.48619498  -527.48680607    -0.00061108  0.02748137  0.03607818  0.00658695  0.11537500  0.24105395  0.04401023     55.22
  10  -527.48680607  -527.48666809     0.00013798  0.01027961  0.02327773  0.00424991  0.20087124  0.35062527  0.06401512     61.43
  11  -527.48666809  -527.48834580    -0.00167771  0.01067045  0.02476800  0.00452200  0.11588785  0.19096194  0.03486472     67.65
  12  -527.48834580  -527.48827753     0.00006827  0.00214362  0.00555569  0.00101432  0.07647824  0.13283853  0.02425289     73.76
  13  -527.48827753  -527.48848283    -0.00020530  0.00484308  0.00809168  0.00147733  0.04996128  0.06909368  0.01261472     79.91
  14  -527.48848283  -527.48849605    -0.00001323  0.00164715  0.00231487  0.00042264  0.00810285  0.01434104  0.00261830     86.01
  15  -527.48849605  -527.48850640    -0.00001034  0.00062352  0.00111127  0.00020289  0.01189729  0.02438444  0.00445197     92.83
  16  -527.48850640  -527.48851120    -0.00000481  0.00055435  0.00095275  0.00017395  0.00974510  0.01960453  0.00357928     99.49
  17  -527.48851120  -527.48851372    -0.00000251  0.00083344  0.00105989  0.00019351  0.00460557  0.01104308  0.00201618    105.96
  18  -527.48851372  -527.48851515    -0.00000143  0.00056458  0.00066984  0.00012230  0.00539898  0.00991806  0.00181078    112.42
  19  -527.48851515  -527.48851541    -0.00000026  0.00017115  0.00022703  0.00004145  0.00317669  0.00517891  0.00094554    118.91

 END OF GEOMETRY OPTIMIZATION.

 Geometry written to block  1 of record 700

 Recomputing wavefunction for reoriented structure

 Current geometry (xyz format, in Angstrom)

   12
 HF-SCF000/6-311G(D,P)  ENERGY=-527.48851541
 C         -0.0381145453       -0.0002492264       -1.9276553958
 O         -1.0164407047       -0.0017469175       -1.2363860144
 O         -0.0922632402        0.0013534292       -3.2352077446
 H         -1.0004300205        0.0009510639       -3.4938594258
 O          1.1833637218        0.0000216745       -1.5115708501
 H          1.2027835839       -0.0006387862       -0.5523532412
 C          0.0381058266        0.0001166586        1.9276181194
 O          1.0167444670       -0.0008162728        1.2367828689
 O          0.0918413215        0.0005907397        3.2352619811
 H          0.9999264710       -0.0000098265        3.4941932352
 O         -1.1832175039        0.0006630057        1.5111559224
 H         -1.2026215780        0.0002339585        0.5518893395

 **********************************************************************************************************************************


 **********************************************************************************************************************************
 DATASETS  * FILE   NREC   LENGTH (MB)   RECORD NAMES
              1      18       29.81       500      610      700      900      950      970     1000      129      960     1100   
                                          VAR    BASINP    GEOM    SYMINP    ZMAT    AOBASIS   BASIS     P2S    ABASIS      S 
                                         1400     1410     1200     1210     1080     1600     1650     1700   
                                           T        V       H0       H01     AOSYM     SMH    MOLCAS    OPER   

              2       4        1.01       700     1000      520     2100   
                                         GEOM     BASIS   MCVARS     RHF  

 PROGRAMS   *        TOTAL      OPTG    HF-SCF       INT
 CPU TIMES  *       127.72    123.26      1.87      2.37
 REAL TIME  *       133.75 SEC
 DISK USED  *        32.87 MB (local),      976.95 MB (total)
 SF USED    *         0.09 MB
 GA USED    *         0.00 MB       (max)       0.00 MB       (current)
 **********************************************************************************************************************************


 PROGRAM * HESSIAN

 PROGRAM * MCKINLEY (Hessian of the energy)     Author: A. Bernhardsson, R. Lindh

 Orbitals from record         2100.2

 Number of closed-shell orbitals: 32 ( 32 )
 Number of occupied orbitals:     32 ( 32 )

 Number of electrons= 64     Singlet     Space symmetry=1      Wavefunction type: CLOSED          


 McKinley needed     58.21 seconds of CPU time

 Entering CPHF calculation

 CPHF needed 318 iterations for 36 perturbations.  Total CPU time:   59.70 sec


 HF-SCF hessian saved to record  5300.2

 PROGRAM * FREQUENCIES (Calculation of harmonic vibrational spectra for HF-SCF)


 Permanent Dipole Moment [debye]
     1-   3    0.000000    0.000000    0.000000

 Dipole Moment Norm    0.0000000 [debye]

 Dipole Moment Derivatives [debye/ang]
              1             2             3             4             5             6             7             8
    1    0.00000000    0.00000000    0.00000000    0.00000000    0.00000000    0.00000000    0.00000000    0.00000000
    2    0.00000000    0.00000000    0.00000000    0.00000000    0.00000000    0.00000000    0.00000000    0.00000000
    3    0.00000000    0.00000000    0.00000000    0.00000000    0.00000000    0.00000000    0.00000000    0.00000000
              9            10            11            12            13            14            15            16
    1    0.00000000    0.00000000    0.00000000    0.00000000    0.00000000    0.00000000    0.00000000    0.00000000
    2    0.00000000    0.00000000    0.00000000    0.00000000    0.00000000    0.00000000    0.00000000    0.00000000
    3    0.00000000    0.00000000    0.00000000    0.00000000    0.00000000    0.00000000    0.00000000    0.00000000
             17            18            19            20            21            22            23            24
    1    0.00000000    0.00000000    0.00000000    0.00000000    0.00000000    0.00000000    0.00000000    0.00000000
    2    0.00000000    0.00000000    0.00000000    0.00000000    0.00000000    0.00000000    0.00000000    0.00000000
    3    0.00000000    0.00000000    0.00000000    0.00000000    0.00000000    0.00000000    0.00000000    0.00000000
             25            26            27            28            29            30            31            32
    1    0.00000000    0.00000000    0.00000000    0.00000000    0.00000000    0.00000000    0.00000000    0.00000000
    2    0.00000000    0.00000000    0.00000000    0.00000000    0.00000000    0.00000000    0.00000000    0.00000000
    3    0.00000000    0.00000000    0.00000000    0.00000000    0.00000000    0.00000000    0.00000000    0.00000000
             33            34            35            36
    1    0.00000000    0.00000000    0.00000000    0.00000000
    2    0.00000000    0.00000000    0.00000000    0.00000000
    3    0.00000000    0.00000000    0.00000000    0.00000000

 Projecting out rotations and translations

 Force Constants (Second Derivatives of the Energy) in [a.u.]
                             CX1         CY1         CZ1         OX2         OY2     
           CX1           1.1106196
           CY1           0.0006846   0.3003779
           CZ1          -0.1297920  -0.0008509   0.9741274
           OX2          -0.5494839  -0.0006318   0.2878015   0.6610472
           OY2          -0.0006583  -0.1149402   0.0004673   0.0008712   0.0509272
           OZ2           0.2787737   0.0004519  -0.3558565  -0.3708163  -0.0006627
           OX3          -0.1559942  -0.0000177  -0.0233963   0.0098310  -0.0000960
           OY3          -0.0000547  -0.0924719   0.0003356  -0.0000901   0.0376790
           OZ3           0.0102937   0.0003635  -0.3841328   0.0527245   0.0001962
           HX4           0.0006188   0.0000121  -0.0104259  -0.0049274  -0.0000094
           HY4           0.0000837   0.0013983   0.0000237  -0.0000029  -0.0051528
           HZ4          -0.0676558  -0.0000248  -0.0202879   0.0038897  -0.0000111
           OX5          -0.3997361  -0.0000935  -0.0679617  -0.1176109  -0.0001035
           OY5          -0.0000933  -0.0945369   0.0000400  -0.0001319   0.0392822
           OZ5          -0.0855375   0.0000403  -0.1893028   0.0202883   0.0000165
           HX6          -0.0002431   0.0000520  -0.0648665   0.0034048  -0.0000003
           HY6           0.0000305   0.0005402  -0.0000178  -0.0000083  -0.0051055
           HZ6          -0.0387663  -0.0000073  -0.0170286   0.0194612   0.0000120
           CX7           0.0415835   0.0000290  -0.0011774  -0.0232101   0.0000063
           CY7          -0.0000196   0.0013698  -0.0000072   0.0000127  -0.0016005
           CZ7          -0.0011607   0.0000112  -0.0159403   0.0026547  -0.0000023
           OX8          -0.0232001  -0.0000162   0.0026602   0.0098868   0.0000016
           OY8           0.0000032  -0.0015933   0.0000034  -0.0000080   0.0020052
           OZ8           0.0221582   0.0000050   0.0084422  -0.0111225  -0.0000013
           OX9          -0.0066034  -0.0000058   0.0009384   0.0039783  -0.0000021
           OY9           0.0000056  -0.0001773   0.0000028  -0.0000027  -0.0000303
           OZ9           0.0023413  -0.0000063   0.0073185  -0.0004781  -0.0000021
           HX10          0.0002381   0.0000009  -0.0007982  -0.0002112   0.0000003
           HY10          0.0000003   0.0001561  -0.0000001  -0.0000002  -0.0001805
           HZ10         -0.0010941   0.0000004  -0.0011908   0.0005850  -0.0000001
           OX11         -0.0180908  -0.0000149   0.0006549   0.0139248   0.0000005
           OY11         -0.0000043  -0.0005636  -0.0000006   0.0000065   0.0049844
           OZ11         -0.0213489  -0.0000286   0.0068592   0.0145340  -0.0000169
           HX12          0.0002917   0.0000012   0.0063630  -0.0066294  -0.0000101
           HY12          0.0000224   0.0004409   0.0000039  -0.0000144  -0.0078681
           HZ12          0.0317884   0.0000457  -0.0130076  -0.0195219   0.0000043
                             OZ2         OX3         OY3         OZ3         HX4     
           OZ2           0.4263840
           OX3           0.0688949   0.7434287
           OY3           0.0002232   0.0003665   0.0486044
           OZ3          -0.1003277   0.1395390  -0.0005992   0.6237849
           HX4           0.0094969  -0.5694816  -0.0002414  -0.1598360   0.5695703
           HY4          -0.0000100  -0.0003248  -0.0153225  -0.0000347   0.0002453
           HZ4           0.0084518  -0.0940462   0.0000210  -0.0916868   0.1582297
           OX5           0.0148216  -0.0202694   0.0000207  -0.0389789   0.0037816
           OY5           0.0000122   0.0000805   0.0170549   0.0000642  -0.0000051
           OZ5           0.0400399  -0.0918769   0.0000341  -0.0583254   0.0031645
           HX6           0.0057921  -0.0085385  -0.0000047  -0.0020764   0.0002075
           HY6           0.0000047  -0.0000040   0.0038948   0.0000003  -0.0000009
           HZ6          -0.0076830   0.0062122  -0.0000041   0.0078583  -0.0003540
           CX7           0.0221885  -0.0066061  -0.0000108   0.0023487   0.0002373
           CY7          -0.0000076   0.0000039  -0.0001811   0.0000035  -0.0000005
           CZ7           0.0084490   0.0009401  -0.0000095   0.0073193  -0.0007984
           OX8          -0.0111310   0.0039776   0.0000044  -0.0004818  -0.0002108
           OY8          -0.0000002   0.0000005  -0.0000310  -0.0000015   0.0000001
           OZ8           0.0018971  -0.0043902   0.0000041  -0.0050151   0.0005959
           OX9          -0.0043937   0.0010457   0.0000025  -0.0008322   0.0000101
           OY9           0.0000004  -0.0000011   0.0001011  -0.0000008   0.0000002
           OZ9          -0.0050203  -0.0008331   0.0000054  -0.0042502   0.0004372
           HX10          0.0005961   0.0000103  -0.0000005   0.0004370  -0.0000248
           HY10         -0.0000000   0.0000001  -0.0000431   0.0000001  -0.0000000
           HZ10          0.0002503   0.0002529  -0.0000003   0.0006153  -0.0000696
           OX11         -0.0082130   0.0028237   0.0000056  -0.0016452  -0.0001310
           OY11         -0.0000180   0.0000005  -0.0002207  -0.0000044   0.0000006
           OZ11         -0.0274514   0.0030613   0.0000163  -0.0064901   0.0005834
           HX12         -0.0060099  -0.0002270   0.0000024  -0.0014922   0.0003500
           HY12          0.0000061  -0.0000082   0.0009363   0.0000128  -0.0000011
           HZ12          0.0108669  -0.0043578  -0.0000264   0.0106503  -0.0010237
                             HY4         HZ4         OX5         OY5         OZ5     
           HY4           0.0133255
           HZ4          -0.0000016   0.1140374
           OX5          -0.0000027   0.0014233   0.5937067
           OY5           0.0035742   0.0000149   0.0002046   0.0553883
           OZ5           0.0000200  -0.0095456   0.1116016  -0.0004873   0.7617195
           HX6           0.0000021  -0.0022482  -0.0657026  -0.0000526   0.0394506
           HY6           0.0022061   0.0000030  -0.0000216  -0.0244398   0.0003724
           HZ6           0.0000013   0.0000537  -0.0077360   0.0003526  -0.5176738
           CX7           0.0000005  -0.0010947  -0.0180956   0.0000039  -0.0213221
           CY7           0.0001555   0.0000002   0.0000097  -0.0005598   0.0000165
           CZ7           0.0000005  -0.0011912   0.0006492   0.0000005   0.0068489
           OX8          -0.0000004   0.0005850   0.0139161  -0.0000030   0.0145073
           OY8          -0.0001803  -0.0000002  -0.0000041   0.0049700  -0.0000015
           OZ8           0.0000003   0.0002505  -0.0082073   0.0000025  -0.0273866
           OX9          -0.0000002   0.0002529   0.0028254  -0.0000007   0.0030607
           OY9          -0.0000431  -0.0000000  -0.0000029  -0.0002224  -0.0000064
           OZ9          -0.0000003   0.0006155  -0.0016428   0.0000016  -0.0064802
           HX10          0.0000000  -0.0000696  -0.0001311  -0.0000006   0.0005823
           HY10          0.0000369   0.0000000  -0.0000001  -0.0001414   0.0000000
           HZ10          0.0000000  -0.0000852   0.0005712  -0.0000001   0.0013496
           OX11         -0.0000001   0.0005716   0.0082614  -0.0000017   0.0075884
           OY11         -0.0001413   0.0000004   0.0000020   0.0005951  -0.0000027
           OZ11         -0.0000013   0.0013513   0.0075979   0.0000015   0.0031736
           HX12         -0.0000006   0.0001625  -0.0009454  -0.0000001  -0.0015071
           HY12          0.0001435  -0.0000018  -0.0000086  -0.0009644  -0.0000019
           HZ12          0.0000022  -0.0019635  -0.0121381  -0.0000027  -0.0044171
                             HX6         HY6         HZ6         CX7         CY7     
           HX6           0.0802253
           HY6          -0.0000001   0.0287853
           HZ6           0.0243217  -0.0003584   0.5249240
           CX7           0.0003037  -0.0000048   0.0317590   1.1108020
           CY7           0.0000007   0.0004457  -0.0000266  -0.0005711   0.3003931
           CZ7           0.0063577  -0.0000058  -0.0129901  -0.1297181   0.0003538
           OX8          -0.0066311   0.0000036  -0.0194934  -0.5497207   0.0004025
           OY8           0.0000016  -0.0078585   0.0000137   0.0004130  -0.1149426
           OZ8          -0.0059999   0.0000035   0.0108718   0.2786725  -0.0002771
           OX9          -0.0002263   0.0000023  -0.0043576  -0.1559871   0.0000382
           OY9          -0.0000002   0.0009372   0.0000090   0.0000494  -0.0924783
           OZ9          -0.0014885  -0.0000016   0.0106355   0.0103904  -0.0001254
           HX10          0.0003495   0.0000000  -0.0010218   0.0006453  -0.0000041
           HY10          0.0000000   0.0001439  -0.0000001  -0.0000241   0.0013954
           HZ10          0.0001621   0.0000002  -0.0019613  -0.0676430   0.0000420
           OX11         -0.0009470   0.0000016  -0.0121259  -0.3997330   0.0001574
           OY11         -0.0000005  -0.0009685   0.0000047   0.0001350  -0.0945234
           OZ11         -0.0015084   0.0000015  -0.0044214  -0.0856081   0.0000098
           HX12         -0.0022021   0.0000016   0.0021008  -0.0002190  -0.0000297
           HY12          0.0000019   0.0014192   0.0000033  -0.0000260   0.0005263
           HZ12          0.0021037  -0.0000020   0.0074149  -0.0387957   0.0000181
                             CZ7         OX8         OY8         OZ8         OX9     
           CZ7           0.9737230
           OX8           0.2877045   0.6613404
           OY8          -0.0002864  -0.0005494   0.0509276
           OZ8          -0.3556000  -0.3706927   0.0003851   0.4259968
           OX9          -0.0233104   0.0097830   0.0000433   0.0689383   0.7433557
           OY9          -0.0000896   0.0000409   0.0376757  -0.0001024  -0.0004663
           OZ9          -0.3839183   0.0527626  -0.0000871  -0.1002885   0.1395422
           HX10         -0.0104139  -0.0049313   0.0000028   0.0094923  -0.5694145
           HY10         -0.0000038   0.0000000  -0.0051524  -0.0000016   0.0003906
           HZ10         -0.0203053   0.0038863   0.0000011   0.0084548  -0.0941952
           OX11         -0.0680680  -0.1176108   0.0000970   0.0147611  -0.0202358
           OY11         -0.0000004   0.0001095   0.0392774  -0.0000113  -0.0000148
           OZ11         -0.1893649   0.0202235  -0.0000147   0.0400585  -0.0918607
           HX12         -0.0648365   0.0034009   0.0000001   0.0057942  -0.0085312
           HY12          0.0000319   0.0000065  -0.0050979  -0.0000067   0.0000129
           HZ12         -0.0170301   0.0194696  -0.0000117  -0.0076814   0.0062174
                             OY9         OZ9         HX10        HY10        HZ10    
           OY9           0.0486044
           OZ9           0.0001171   0.6236485
           HX10          0.0003639  -0.1599850   0.5694823
           HY10         -0.0153180   0.0000979  -0.0003662   0.0133241
           HZ10          0.0000449  -0.0917657   0.1583665  -0.0000824   0.1141305
           OX11          0.0000058  -0.0389688   0.0037788  -0.0000005   0.0014253
           OY11          0.0170529  -0.0000046   0.0000022   0.0035728  -0.0000064
           OZ11          0.0000271  -0.0583627   0.0031686  -0.0000090  -0.0095463
           HX12          0.0000075  -0.0020775   0.0002087   0.0000003  -0.0022473
           HY12          0.0038982   0.0000054   0.0000013   0.0022064   0.0000006
           HZ12         -0.0000020   0.0078680  -0.0003544  -0.0000010   0.0000543
                             OX11        OY11        OZ11        HX12        HY12    
           OX11          0.5936789
           OY11         -0.0002752   0.0553892
           OZ11          0.1117064   0.0002575   0.7616337
           HX12         -0.0657191   0.0000385   0.0394509   0.0802221
           HY12          0.0000245  -0.0244542  -0.0002431  -0.0000112   0.0288138
           HZ12         -0.0076867  -0.0002140  -0.5174395   0.0242992   0.0001894
                             HZ12    
           HZ12          0.5246849


 Atomic Masses
     1-  10   12.000000   15.994910   15.994910    1.007825   15.994910    1.007825   12.000000   15.994910   15.994910    1.007825
    11-  12   15.994910    1.007825

 Mass weighted Second Derivative Matrix
                             CX1         CY1         CZ1         OX2         OY2     
           CX1           0.0925516
           CY1           0.0000571   0.0250315
           CZ1          -0.0108160  -0.0000709   0.0811773
           OX2          -0.0396619  -0.0000456   0.0207736   0.0413286
           OY2          -0.0000475  -0.0082964   0.0000337   0.0000545   0.0031840
           OZ2           0.0201220   0.0000326  -0.0256858  -0.0231834  -0.0000414
           OX3          -0.0112597  -0.0000013  -0.0016887   0.0006146  -0.0000060
           OY3          -0.0000039  -0.0066746   0.0000242  -0.0000056   0.0023557
           OZ3           0.0007430   0.0000262  -0.0277268   0.0032963   0.0000123
           HX4           0.0001779   0.0000035  -0.0029980  -0.0012272  -0.0000024
           HY4           0.0000241   0.0004021   0.0000068  -0.0000007  -0.0012834
           HZ4          -0.0194546  -0.0000071  -0.0058338   0.0009688  -0.0000028
           OX5          -0.0288531  -0.0000067  -0.0049055  -0.0073530  -0.0000065
           OY5          -0.0000067  -0.0068237   0.0000029  -0.0000082   0.0024559
           OZ5          -0.0061741   0.0000029  -0.0136639   0.0012684   0.0000010
           HX6          -0.0000699   0.0000150  -0.0186525   0.0008480  -0.0000001
           HY6           0.0000088   0.0001553  -0.0000051  -0.0000021  -0.0012716
           HZ6          -0.0111473  -0.0000021  -0.0048966   0.0048471   0.0000030
           CX7           0.0034653   0.0000024  -0.0000981  -0.0016753   0.0000005
           CY7          -0.0000016   0.0001142  -0.0000006   0.0000009  -0.0001155
           CZ7          -0.0000967   0.0000009  -0.0013284   0.0001916  -0.0000002
           OX8          -0.0016746  -0.0000012   0.0001920   0.0006181   0.0000001
           OY8           0.0000002  -0.0001150   0.0000002  -0.0000005   0.0001254
           OZ8           0.0015994   0.0000004   0.0006094  -0.0006954  -0.0000001
           OX9          -0.0004766  -0.0000004   0.0000677   0.0002487  -0.0000001
           OY9           0.0000004  -0.0000128   0.0000002  -0.0000002  -0.0000019
           OZ9           0.0001690  -0.0000005   0.0005282  -0.0000299  -0.0000001
           HX10          0.0000685   0.0000003  -0.0002295  -0.0000526   0.0000001
           HY10          0.0000001   0.0000449  -0.0000000  -0.0000000  -0.0000450
           HZ10         -0.0003146   0.0000001  -0.0003424   0.0001457  -0.0000000
           OX11         -0.0013058  -0.0000011   0.0000473   0.0008706   0.0000000
           OY11         -0.0000003  -0.0000407  -0.0000000   0.0000004   0.0003116
           OZ11         -0.0015410  -0.0000021   0.0004951   0.0009087  -0.0000011
           HX12          0.0000839   0.0000003   0.0018297  -0.0016512  -0.0000025
           HY12          0.0000065   0.0001268   0.0000011  -0.0000036  -0.0019597
           HZ12          0.0091408   0.0000132  -0.0037404  -0.0048623   0.0000011
                             OZ2         OX3         OY3         OZ3         HX4     
           OZ2           0.0266575
           OX3           0.0043073   0.0464791
           OY3           0.0000140   0.0000229   0.0030387
           OZ3          -0.0062725   0.0087240  -0.0000375   0.0389990
           HX4           0.0023654  -0.1418392  -0.0000601  -0.0398099   0.5651480
           HY4          -0.0000025  -0.0000809  -0.0038163  -0.0000086   0.0002434
           HZ4           0.0021051  -0.0234238   0.0000052  -0.0228362   0.1570011
           OX5           0.0009266  -0.0012672   0.0000013  -0.0024370   0.0009419
           OY5           0.0000008   0.0000050   0.0010663   0.0000040  -0.0000013
           OZ5           0.0025033  -0.0057441   0.0000021  -0.0036465   0.0007882
           HX6           0.0014426  -0.0021267  -0.0000012  -0.0005172   0.0002059
           HY6           0.0000012  -0.0000010   0.0009701   0.0000001  -0.0000009
           HZ6          -0.0019136   0.0015473  -0.0000010   0.0019573  -0.0003512
           CX7           0.0016016  -0.0004768  -0.0000008   0.0001695   0.0000682
           CY7          -0.0000005   0.0000003  -0.0000131   0.0000003  -0.0000001
           CZ7           0.0006098   0.0000679  -0.0000007   0.0005283  -0.0002296
           OX8          -0.0006959   0.0002487   0.0000003  -0.0000301  -0.0000525
           OY8          -0.0000000   0.0000000  -0.0000019  -0.0000001   0.0000000
           OZ8           0.0001186  -0.0002745   0.0000003  -0.0003135   0.0001484
           OX9          -0.0002747   0.0000654   0.0000002  -0.0000520   0.0000025
           OY9           0.0000000  -0.0000001   0.0000063  -0.0000001   0.0000000
           OZ9          -0.0003139  -0.0000521   0.0000003  -0.0002657   0.0001089
           HX10          0.0001485   0.0000026  -0.0000001   0.0001088  -0.0000246
           HY10         -0.0000000   0.0000000  -0.0000107   0.0000000  -0.0000000
           HZ10          0.0000623   0.0000630  -0.0000001   0.0001533  -0.0000690
           OX11         -0.0005135   0.0001765   0.0000004  -0.0001029  -0.0000326
           OY11         -0.0000011   0.0000000  -0.0000138  -0.0000003   0.0000002
           OZ11         -0.0017163   0.0001914   0.0000010  -0.0004058   0.0001453
           HX12         -0.0014969  -0.0000565   0.0000006  -0.0003717   0.0003473
           HY12          0.0000015  -0.0000020   0.0002332   0.0000032  -0.0000011
           HZ12          0.0027066  -0.0010854  -0.0000066   0.0026526  -0.0010157
                             HY4         HZ4         OX5         OY5         OZ5     
           HY4           0.0132221
           HZ4          -0.0000016   0.1131520
           OX5          -0.0000007   0.0003545   0.0371185
           OY5           0.0008902   0.0000037   0.0000128   0.0034629
           OZ5           0.0000050  -0.0023775   0.0069773  -0.0000305   0.0476226
           HX6           0.0000021  -0.0022307  -0.0163644  -0.0000131   0.0098259
           HY6           0.0021889   0.0000030  -0.0000054  -0.0060871   0.0000928
           HZ6           0.0000012   0.0000532  -0.0019268   0.0000878  -0.1289356
           CX7           0.0000001  -0.0003148  -0.0013061   0.0000003  -0.0015390
           CY7           0.0000447   0.0000000   0.0000007  -0.0000404   0.0000012
           CZ7           0.0000001  -0.0003425   0.0000469   0.0000000   0.0004944
           OX8          -0.0000001   0.0001457   0.0008700  -0.0000002   0.0009070
           OY8          -0.0000449  -0.0000000  -0.0000003   0.0003107  -0.0000001
           OZ8           0.0000001   0.0000624  -0.0005131   0.0000002  -0.0017122
           OX9          -0.0000000   0.0000630   0.0001766  -0.0000000   0.0001914
           OY9          -0.0000107  -0.0000000  -0.0000002  -0.0000139  -0.0000004
           OZ9          -0.0000001   0.0001533  -0.0001027   0.0000001  -0.0004051
           HX10          0.0000000  -0.0000690  -0.0000326  -0.0000001   0.0001450
           HY10          0.0000366   0.0000000  -0.0000000  -0.0000352   0.0000000
           HZ10          0.0000000  -0.0000846   0.0001423  -0.0000000   0.0003361
           OX11         -0.0000000   0.0001424   0.0005165  -0.0000001   0.0004744
           OY11         -0.0000352   0.0000001   0.0000001   0.0000372  -0.0000002
           OZ11         -0.0000003   0.0003366   0.0004750   0.0000001   0.0001984
           HX12         -0.0000006   0.0001612  -0.0002355  -0.0000000  -0.0003754
           HY12          0.0001424  -0.0000018  -0.0000021  -0.0002402  -0.0000005
           HZ12          0.0000022  -0.0019483  -0.0030232  -0.0000007  -0.0011002
                             HX6         HY6         HZ6         CX7         CY7     
           HX6           0.0796025
           HY6          -0.0000001   0.0285618
           HZ6           0.0241328  -0.0003557   0.5208483
           CX7           0.0000873  -0.0000014   0.0091324   0.0925668
           CY7           0.0000002   0.0001282  -0.0000076  -0.0000476   0.0250328
           CZ7           0.0018282  -0.0000017  -0.0037353  -0.0108098   0.0000295
           OX8          -0.0016516   0.0000009  -0.0048552  -0.0396790   0.0000291
           OY8           0.0000004  -0.0019573   0.0000034   0.0000298  -0.0082966
           OZ8          -0.0014944   0.0000009   0.0027078   0.0201147  -0.0000200
           OX9          -0.0000564   0.0000006  -0.0010853  -0.0112592   0.0000028
           OY9          -0.0000000   0.0002334   0.0000022   0.0000036  -0.0066751
           OZ9          -0.0003707  -0.0000004   0.0026489   0.0007500  -0.0000091
           HX10          0.0003467   0.0000000  -0.0010138   0.0001856  -0.0000012
           HY10          0.0000000   0.0001428  -0.0000001  -0.0000069   0.0004012
           HZ10          0.0001608   0.0000002  -0.0019461  -0.0194509   0.0000121
           OX11         -0.0002359   0.0000004  -0.0030202  -0.0288528   0.0000114
           OY11         -0.0000001  -0.0002412   0.0000012   0.0000097  -0.0068227
           OZ11         -0.0003757   0.0000004  -0.0011012  -0.0061792   0.0000007
           HX12         -0.0021850   0.0000016   0.0020845  -0.0000630  -0.0000085
           HY12          0.0000019   0.0014082   0.0000033  -0.0000075   0.0001513
           HZ12          0.0020873  -0.0000020   0.0073574  -0.0111558   0.0000052
                             CZ7         OX8         OY8         OZ8         OX9     
           CZ7           0.0811436
           OX8           0.0207666   0.0413469
           OY8          -0.0000207  -0.0000343   0.0031840
           OZ8          -0.0256673  -0.0231757   0.0000241   0.0266333
           OX9          -0.0016826   0.0006116   0.0000027   0.0043100   0.0464745
           OY9          -0.0000065   0.0000026   0.0023555  -0.0000064  -0.0000292
           OZ9          -0.0277113   0.0032987  -0.0000054  -0.0062700   0.0087242
           HX10         -0.0029946  -0.0012282   0.0000007   0.0023642  -0.1418225
           HY10         -0.0000011   0.0000000  -0.0012833  -0.0000004   0.0000973
           HZ10         -0.0058388   0.0009679   0.0000003   0.0021058  -0.0234609
           OX11         -0.0049132  -0.0073530   0.0000061   0.0009229  -0.0012651
           OY11         -0.0000000   0.0000068   0.0024556  -0.0000007  -0.0000009
           OZ11         -0.0136684   0.0012644  -0.0000009   0.0025045  -0.0057431
           HX12         -0.0186439   0.0008470   0.0000000   0.0014431  -0.0021248
           HY12          0.0000092   0.0000016  -0.0012697  -0.0000017   0.0000032
           HZ12         -0.0048971   0.0048492  -0.0000029  -0.0019132   0.0015486
                             OY9         OZ9         HX10        HY10        HZ10    
           OY9           0.0030387
           OZ9           0.0000073   0.0389904
           HX10          0.0000906  -0.0398470   0.5650607
           HY10         -0.0038152   0.0000244  -0.0003634   0.0132206
           HZ10          0.0000112  -0.0228558   0.1571369  -0.0000817   0.1132443
           OX11          0.0000004  -0.0024363   0.0009412  -0.0000001   0.0003550
           OY11          0.0010661  -0.0000003   0.0000006   0.0008899  -0.0000016
           OZ11          0.0000017  -0.0036488   0.0007892  -0.0000022  -0.0023777
           HX12          0.0000019  -0.0005174   0.0002071   0.0000003  -0.0022299
           HY12          0.0009709   0.0000013   0.0000012   0.0021893   0.0000006
           HZ12         -0.0000005   0.0019597  -0.0003517  -0.0000010   0.0000538
                             OX11        OY11        OZ11        HX12        HY12    
           OX11          0.0371167
           OY11         -0.0000172   0.0034629
           OZ11          0.0069839   0.0000161   0.0476173
           HX12         -0.0163685   0.0000096   0.0098259   0.0795992
           HY12          0.0000061  -0.0060907  -0.0000606  -0.0000111   0.0285901
           HZ12         -0.0019145  -0.0000533  -0.1288772   0.0241105   0.0001879
                             HZ12    
           HZ12          0.5206111


 Mass Weighted 2nd Derivative Matrix Eigenvalues
     1-  10    0.000000    0.000000    0.000000    0.000000    0.000000    0.000000    0.000119    0.000221    0.000506    0.000971
    11-  20    0.001038    0.001081    0.014215    0.014245    0.014791    0.015638    0.018240    0.018391    0.028172    0.029196
    21-  30    0.031894    0.034462    0.047277    0.047742    0.069627    0.069842    0.082261    0.083606    0.103092    0.105964
    31-  36    0.140503    0.147652    0.548031    0.562291    0.651472    0.651580

 Mass Weighted 2nd Derivative Matrix Eigenvectors
              1             2             3             4             5             6             7             8
    1    0.00000000    0.40610629    0.00000000    0.00000000    0.00000000    0.00000000    0.00000590   -0.00001734
    2   -0.18262383   -0.00000338    0.15333005    0.21165437    0.04733219    0.26673122   -0.02933212   -0.01076124
    3    0.08518589   -0.00331802   -0.07250024   -0.02134261    0.28167944    0.06691413    0.00021137    0.00006475
    4    0.05645584    0.39938050   -0.01300274    0.05685975   -0.01584906    0.00378544    0.00034045    0.00046867
    5   -0.07454681   -0.00010401    0.04583395    0.01024540   -0.10579437    0.59306234   -0.47143196   -0.31748972
    6    0.17854355   -0.10215764   -0.10238924    0.05532372    0.30242551    0.08322861   -0.00022702    0.00010814
    7   -0.10686200    0.60027228    0.02480821   -0.10734317    0.03016748   -0.00756194   -0.00039436   -0.00038665
    8   -0.35338604   -0.00000944    0.09505433    0.36456400    0.06611883    0.39052751    0.50674001   -0.22254297
    9    0.10259923   -0.00927294   -0.08483058   -0.02004775    0.32396842    0.07766787    0.00092355   -0.00016533
   10   -0.03214119    0.15720343    0.00749040   -0.03224434    0.00909816   -0.00233261   -0.00008965   -0.00004623
   11   -0.08215085   -0.00002570   -0.01925410    0.05932166   -0.01737016    0.17568301    0.11709835   -0.15305467
   12    0.04441303   -0.02523929   -0.02566184    0.01362506    0.07601741    0.02090049    0.00021393   -0.00006930
   13    0.03405249    0.42703784   -0.00802972    0.03402608   -0.00971950    0.00266130    0.00002087   -0.00022450
   14   -0.23835815    0.00012109    0.41182255    0.41008961    0.23561648   -0.11152631   -0.01879221    0.56116293
   15   -0.00159971    0.11893428   -0.06028317   -0.12463694    0.35361889    0.06971396    0.00021380    0.00030733
   16    0.02823365    0.08299384   -0.00660631    0.02828589   -0.00801477    0.00210275    0.00004591   -0.00000405
   17   -0.03327462    0.00003089    0.11758475    0.07994061    0.05624950   -0.04153789   -0.08419560    0.10600534
   18   -0.00078182    0.03034436   -0.01502932   -0.03170146    0.08887493    0.01746096   -0.00000402    0.00005276
   19    0.27317666    0.07048944   -0.06412082    0.27339166   -0.07771937    0.02075192    0.00001310    0.00005481
   20    0.18578525    0.00000338    0.35013834   -0.10757393    0.00695237    0.07942546   -0.02898982   -0.01080057
   21    0.07975011    0.00331726   -0.07125122   -0.02671738    0.28321982    0.06652164   -0.00024182   -0.00005969
   22    0.25881965    0.15081392   -0.06061289    0.25922280   -0.07351672    0.01938208   -0.00012340   -0.00008796
   23    0.07822623    0.00010404    0.53550704    0.10992720    0.16850815   -0.19354220   -0.47021602   -0.31764000
   24    0.01212334    0.10218817   -0.06343333   -0.11107588    0.34973071    0.07070266    0.00011975    0.00013660
   25    0.42238222   -0.05004389   -0.09919847    0.42263417   -0.12021631    0.03219902    0.00005097   -0.00020061
   26    0.35707116    0.00000940    0.48614187   -0.24448042   -0.00351113    0.00924657    0.50592485   -0.22235869
   27    0.08762436    0.00923054   -0.08125611   -0.03519901    0.32823909    0.07649161   -0.00047975    0.00001656
   28    0.11133236   -0.01909424   -0.02612127    0.11143587   -0.03166490    0.00843515   -0.00001296   -0.00013014
   29    0.08308495    0.00002568    0.16514407   -0.02918915    0.03308150   -0.07533005    0.11686890   -0.15299137
   30    0.00336591    0.02522659   -0.01601502   -0.02751612    0.08769293    0.01778366   -0.00005305    0.00005987
   31    0.28135314    0.12323783   -0.06613325    0.28143985   -0.08012532    0.02156165    0.00009848    0.00042111
   32    0.24195657   -0.00012108    0.16944607   -0.28986337   -0.17291458    0.51113818   -0.01821751    0.56116546
   33    0.19191729   -0.11891958   -0.10572270    0.06921904    0.29858279    0.08437949   -0.00053891   -0.00039868
   34    0.05092070    0.05513550   -0.01196216    0.05094647   -0.01449552    0.00388823    0.00001899    0.00009075
   35    0.03417627   -0.00003089    0.02832307   -0.04976000   -0.04050952    0.14184624   -0.08400231    0.10593935
   36    0.04858478   -0.03034027   -0.02662557    0.01776329    0.07483418    0.02120539   -0.00009728   -0.00007918
              9            10            11            12            13            14            15            16
    1    0.00019571   -0.01162434    0.17432049   -0.02449600   -0.00016192    0.00023415    0.19607185    0.19924428
    2   -0.14384642    0.00006952    0.00017416   -0.00034031    0.08241426   -0.08303512    0.00033521    0.00022361
    3    0.00006944    0.30755563    0.06572685   -0.00985489    0.00014086   -0.00019028   -0.11447610   -0.09567638
    4    0.00089356   -0.08350840    0.38382736   -0.23833209   -0.00006050    0.00010281    0.16283664    0.15531478
    5   -0.46003311    0.00050265    0.00060928   -0.00139429    0.03009186   -0.01805086    0.00039863    0.00033934
    6    0.00037275    0.28258330    0.32773791   -0.30086873    0.00019361   -0.00028161   -0.24581265   -0.25409687
    7   -0.00097715    0.02241991   -0.16588574    0.41202389    0.00003993   -0.00014627   -0.36542539   -0.34521882
    8    0.37639535   -0.00038895   -0.00045975    0.00060853    0.17049748   -0.18345728    0.00014649   -0.00004468
    9    0.00079703    0.36455506    0.09068473   -0.04204649    0.00021326   -0.00028117   -0.11919875   -0.11753365
   10   -0.00029633    0.00748778   -0.06069644    0.12650210    0.00059601   -0.00067502   -0.14985578   -0.14574001
   11    0.10862930   -0.00007195   -0.00013416    0.00006078   -0.64917550    0.68775028   -0.00110135   -0.00041304
   12    0.00035637    0.08506965    0.08990613   -0.09016859   -0.00093076    0.00102920    0.16485577    0.17015717
   13    0.00060554   -0.05852471    0.31038094   -0.15453293    0.00001296    0.00002769    0.07144044    0.08222066
   14   -0.32710409   -0.00004093    0.00024901    0.00000368   -0.10758678    0.11178625   -0.00056352   -0.00039839
   15   -0.00085406    0.40619943   -0.23604068    0.33143078   -0.00030513    0.00039707    0.36992791    0.38519704
   16    0.00026432   -0.01850739    0.10007432   -0.10116202    0.00004775   -0.00007507   -0.10886033   -0.11278549
   17   -0.07844424    0.00008266    0.00010517   -0.00003259    0.04261176   -0.04512283   -0.00002751   -0.00014280
   18   -0.00021956    0.10662596   -0.06040867    0.08547395   -0.00002990    0.00005509    0.10304342    0.10545933
   19   -0.00010535    0.01085580   -0.17415993   -0.02593825   -0.00004863   -0.00024033   -0.19596768    0.19946588
   20    0.14390282    0.00001420   -0.00015858    0.00028755   -0.08699132   -0.07820772    0.00025539   -0.00021780
   21   -0.00010499   -0.30772877   -0.06569977   -0.00036333    0.00001339    0.00014496    0.11436668   -0.09548206
   22    0.00013259    0.07575240   -0.38220140   -0.24321442    0.00004298   -0.00016079   -0.16289188    0.15529904
   23    0.46101947    0.00043765   -0.00062926    0.00073342   -0.03108815   -0.01634180    0.00020496   -0.00018022
   24   -0.00012216   -0.29221980   -0.32596393   -0.29384156    0.00003680    0.00025090    0.24554290   -0.25436797
   25   -0.00067715   -0.00923201    0.16327893    0.41355774   -0.00017511    0.00022156    0.36518957   -0.34546129
   26   -0.37763638   -0.00037821    0.00027339   -0.00045046   -0.18061760   -0.17345383   -0.00010562    0.00014686
   27    0.00011190   -0.36572983   -0.09034387   -0.03068715    0.00001164    0.00015837    0.11933198   -0.11743733
   28   -0.00018878   -0.00344648    0.05991367    0.12707474    0.00051461    0.00064346    0.14981882   -0.14591280
   29   -0.10891246   -0.00003919    0.00001483   -0.00014054    0.68723609    0.64975940   -0.00054039    0.00036541
   30    0.00005993   -0.08789225   -0.08930096   -0.08788187   -0.00026658   -0.00041299   -0.16468239    0.17034299
   31   -0.00000947    0.05355994   -0.30950498   -0.15838967    0.00004632   -0.00003221   -0.07121565    0.08230680
   32    0.32733847   -0.00017038   -0.00007140    0.00052882    0.11372320    0.10545043   -0.00011367    0.00008672
   33   -0.00030756   -0.39523846    0.23388827    0.34570892    0.00001464   -0.00035529   -0.36975122    0.38538491
   34    0.00003680    0.01525711   -0.09942772   -0.10233132   -0.00005967    0.00007703    0.10880181   -0.11269664
   35    0.07861361   -0.00010831    0.00007482    0.00017611   -0.04503932   -0.04254810   -0.00023825    0.00037110
   36   -0.00006567   -0.10380228    0.05985973    0.08920966    0.00003839   -0.00006978   -0.10299925    0.10551210
             17            18            19            20            21            22            23            24
    1    0.07134836   -0.07229505    0.00013964    0.00023419   -0.00038218   -0.00037202    0.09777106    0.09557216
    2   -0.00018797    0.00021623   -0.24508838   -0.46558480    0.58058521    0.41914391    0.00022142    0.00026541
    3    0.15115651   -0.16353229   -0.00036238   -0.00053070    0.00066799    0.00052043   -0.11239173   -0.11871904
    4   -0.30167512    0.31197086    0.00004382   -0.00008695    0.00010823    0.00006604    0.26118560    0.25148805
    5    0.00016931   -0.00019227    0.09580594    0.10448591   -0.19057013   -0.19234130    0.00036917    0.00034027
    6   -0.34313888    0.33604000    0.00024941    0.00021151   -0.00021267   -0.00016015   -0.16971006   -0.18487906
    7   -0.08320884    0.06793535   -0.00003033   -0.00009244    0.00012151    0.00007592    0.06662416    0.06921864
    8   -0.00036321    0.00035805    0.08246519    0.14975809   -0.16073362   -0.10255321   -0.00042390   -0.00044286
    9    0.28065693   -0.30864243   -0.00019152    0.00019306   -0.00031876   -0.00017732    0.38550185    0.39420061
   10   -0.04413800    0.03922139   -0.00000456    0.00001765   -0.00006733   -0.00006531   -0.00587323   -0.00624049
   11   -0.00027616    0.00031178    0.05007373    0.01497674    0.07192223    0.08318633   -0.00023403   -0.00024834
   12    0.15421726   -0.15765647   -0.00010697   -0.00005780    0.00008560    0.00008026    0.18274395    0.18863007
   13    0.29680960   -0.28413583   -0.00000745   -0.00002969    0.00012276    0.00015117   -0.37367864   -0.36972765
   14    0.00035379   -0.00033019   -0.07351526    0.02194148   -0.20460198   -0.20829519   -0.00011227   -0.00009012
   15   -0.15221524    0.14356927    0.00002403    0.00005303   -0.00016493   -0.00016159   -0.15363593   -0.17260736
   16    0.19473791   -0.17135408   -0.00033461   -0.00026023    0.00001170   -0.00007222   -0.14859588   -0.14975492
   17    0.00023312   -0.00040912    0.65343691    0.48820737    0.23435558    0.47455839    0.00017963    0.00008211
   18   -0.04236125    0.04134278    0.00051042    0.00037393    0.00016454    0.00034370   -0.04168728   -0.04326024
   19   -0.07126763   -0.07212214    0.00013384   -0.00032347   -0.00035125    0.00025979    0.09909645   -0.09405935
   20   -0.00004082   -0.00008996    0.23544288   -0.47227479   -0.57891534    0.41951002   -0.00002888    0.00005260
   21   -0.15152606   -0.16327669   -0.00013648    0.00024098    0.00023150   -0.00011815   -0.11425501    0.11723617
   22    0.30217435    0.31123996    0.00012281    0.00002333    0.00017476   -0.00017268    0.26490247   -0.24779467
   23   -0.00007574   -0.00003883   -0.09390988    0.10707958    0.19003965   -0.19236114   -0.00026713    0.00023043
   24    0.34365340    0.33556317    0.00010792   -0.00003605   -0.00008820    0.00010133   -0.17224999    0.18224495
   25    0.08324007    0.06794673   -0.00013063    0.00014953    0.00011345   -0.00005415    0.06745431   -0.06807460
   26   -0.00012732   -0.00011502   -0.07924687    0.15193431    0.16026082   -0.10260585    0.00009159   -0.00009522
   27   -0.28133126   -0.30819454   -0.00019483    0.00000301   -0.00006938    0.00005917    0.39129071   -0.38868913
   28    0.04416720    0.03921328   -0.00006338    0.00002004   -0.00007480    0.00008436   -0.00599760    0.00617696
   29   -0.00015739   -0.00010473   -0.04941069    0.01592189   -0.07175077    0.08337723    0.00009555   -0.00009487
   30   -0.15437661   -0.15741083   -0.00001197    0.00001613    0.00008557   -0.00006888    0.18536813   -0.18582445
   31   -0.29731960   -0.28363592   -0.00002951    0.00009507    0.00007401   -0.00001686   -0.37887109    0.36413233
   32    0.00023480    0.00013843    0.07343048    0.02068761    0.20417494   -0.20883682    0.00016160   -0.00013466
   33    0.15270196    0.14309572    0.00025449   -0.00019303   -0.00003684   -0.00004120   -0.15619521    0.17045702
   34   -0.19512722   -0.17093733   -0.00041645    0.00029620   -0.00018610    0.00024351   -0.15081288    0.14761770
   35    0.00022649    0.00048286   -0.64085387    0.50255126   -0.23459097    0.47666405    0.00001531   -0.00007065
   36    0.04249347    0.04122444    0.00033599   -0.00025491    0.00010918   -0.00023032   -0.04233272    0.04267509
             25            26            27            28            29            30            31            32
    1   -0.12741494    0.10368221    0.01716578    0.04955928    0.28733645    0.36905935   -0.43961564    0.50406001
    2    0.00015708   -0.00017275   -0.00022018   -0.00030048   -0.00034045   -0.00015650   -0.00068939    0.00064568
    3   -0.14289468    0.15004897    0.16013059    0.21508292    0.47945754    0.39551977    0.35883041   -0.27493036
    4    0.08300212   -0.07925703    0.18066430    0.20455877   -0.00472781   -0.08811492    0.26964120   -0.28929999
    5    0.00015800   -0.00013620    0.00029311    0.00033450    0.00008626   -0.00006711    0.00043831   -0.00042233
    6   -0.08772341    0.08277276   -0.15814990   -0.15194573   -0.07214142   -0.04101465   -0.20184199    0.19736921
    7   -0.15977492    0.16349330   -0.10360283   -0.10876074   -0.07413217   -0.07462208    0.04626824   -0.05603766
    8   -0.00049656    0.00049847   -0.00006716   -0.00004227    0.00010795    0.00008376    0.00014123   -0.00011463
    9    0.29083595   -0.29019222   -0.00856841   -0.03041843   -0.14045089   -0.11889798   -0.09248742    0.06400413
   10    0.13408982   -0.13604029    0.04832244    0.04979759    0.03039425    0.03220877   -0.02993862    0.02802320
   11    0.00073106   -0.00075363    0.00034444    0.00037088    0.00026001    0.00026636   -0.00015807    0.00016841
   12   -0.49556535    0.50517209   -0.23828512   -0.24941137   -0.17908789   -0.18415763    0.11012128   -0.12075358
   13    0.18703097   -0.18820396   -0.23721263   -0.24900555   -0.10365343   -0.09667214    0.10177338   -0.12351855
   14    0.00004461   -0.00004281   -0.00018694   -0.00016507    0.00007146    0.00006508    0.00006929   -0.00008282
   15    0.04637722   -0.04481087    0.08906991    0.05936047   -0.15320446   -0.15620288   -0.01566383    0.00968286
   16   -0.17817095    0.19270445    0.53028659    0.49432828   -0.29455099   -0.33507118   -0.16996317    0.10051073
   17   -0.00010038    0.00010430    0.00020919    0.00016318   -0.00012484   -0.00010199    0.00000096    0.00010122
   18    0.01625545   -0.01818564   -0.00503852   -0.00870355   -0.01778170   -0.00837505   -0.02898278   -0.01039247
   19    0.12861673    0.10211864    0.01720147   -0.04949109    0.28906649   -0.36703915    0.44041999    0.50388148
   20    0.00000478    0.00002500    0.00003209   -0.00004420    0.00001243    0.00008224   -0.00043705   -0.00043146
   21    0.14477540    0.14842075    0.16069483   -0.21485842    0.48188081   -0.39298668   -0.35869661   -0.27416747
   22   -0.08390696   -0.07819384    0.18120127   -0.20425275   -0.00505846    0.08789540   -0.27004453   -0.28913041
   23    0.00009405    0.00007161   -0.00017730    0.00018071   -0.00002642   -0.00005056    0.00027188    0.00026325
   24    0.08859402    0.08159343   -0.15840877    0.15156600   -0.07251948    0.04075414    0.20190664    0.19701245
   25    0.16183091    0.16170150   -0.10380152    0.10852149   -0.07447755    0.07412358   -0.04638365   -0.05603123
   26   -0.00023589   -0.00023225    0.00007722   -0.00006943    0.00000056   -0.00000862    0.00006737    0.00006216
   27   -0.29409928   -0.28652755   -0.00865043    0.03038966   -0.14105955    0.11804663    0.09243355    0.06380881
   28   -0.13584619   -0.13458334    0.04849454   -0.04977841    0.03062303   -0.03208173    0.03000655    0.02803229
   29    0.00029619    0.00029776   -0.00013069    0.00014032   -0.00009994    0.00010119   -0.00006258   -0.00006041
   30    0.50155837    0.49926850   -0.23875760    0.24890484   -0.18005454    0.18305021   -0.11030011   -0.12068098
   31   -0.18932549   -0.18605670   -0.23779729    0.24857067   -0.10411332    0.09600442   -0.10198653   -0.12347637
   32    0.00008663    0.00007616    0.00017437   -0.00016695   -0.00000486    0.00000188    0.00007008    0.00006947
   33   -0.04705813   -0.04440171    0.08910340   -0.05902057   -0.15420141    0.15542287    0.01557443    0.00956445
   34    0.18033538    0.19050004    0.53131213   -0.49311632   -0.29669620    0.33349372    0.17003547    0.10019973
   35   -0.00009439   -0.00007473   -0.00022531    0.00023017    0.00016063   -0.00010662   -0.00010884   -0.00005247
   36   -0.01649337   -0.01801979   -0.00507057    0.00870868   -0.01786598    0.00827855    0.02901307   -0.01044132
             33            34            35            36
    1    0.03059279    0.00057139   -0.00347822    0.00352420
    2    0.00002884    0.00001506    0.00000078   -0.00000002
    3   -0.00429395   -0.00927512   -0.00297580    0.00204930
    4   -0.01600600   -0.00104147   -0.00154662    0.00124268
    5   -0.00001021    0.00000461   -0.00000386    0.00000362
    6    0.00924365    0.00120890    0.00295806   -0.00222086
    7   -0.00648410   -0.00330472   -0.16762045    0.15673840
    8   -0.00000680   -0.00001406   -0.00006556    0.00006112
    9   -0.00012704    0.00600312   -0.05406884    0.05081258
   10    0.00212494    0.02036147    0.67751135   -0.63378536
   11    0.00000809    0.00001063    0.00028009   -0.00026192
   12   -0.00425304    0.00484805    0.20725652   -0.19409044
   13    0.00024737   -0.00992107    0.00214963   -0.00184616
   14   -0.00012549    0.00012116   -0.00000460    0.00000083
   15    0.17247686   -0.17376867    0.00657927   -0.00105244
   16   -0.02802594    0.03456840   -0.00016561    0.00025084
   17    0.00049517   -0.00049331    0.00001335    0.00000039
   18   -0.67772909    0.69045474   -0.01955782   -0.00306704
   19   -0.03057531    0.00106752   -0.00323288   -0.00374662
   20    0.00002219   -0.00000468    0.00000109    0.00000165
   21    0.00411726   -0.00933343   -0.00283225   -0.00224423
   22    0.01597943   -0.00129805   -0.00146020   -0.00134409
   23   -0.00001407    0.00000243    0.00000180    0.00000187
   24   -0.00921875    0.00136416    0.00280139    0.00241310
   25    0.00643281   -0.00341118   -0.15673608   -0.16759408
   26   -0.00000440    0.00000589    0.00010076    0.00010770
   27    0.00024797    0.00599628   -0.05059192   -0.05436826
   28   -0.00179360    0.02038809    0.63350000    0.67766258
   29    0.00000297   -0.00001443   -0.00041193   -0.00044060
   30    0.00432647    0.00478544    0.19398434    0.20773192
   31   -0.00041688   -0.00989528    0.00201965    0.00198473
   32   -0.00007767   -0.00006981    0.00000180   -0.00000054
   33   -0.17551518   -0.17070959    0.00648668    0.00148922
   34    0.02861978    0.03404632   -0.00014535   -0.00026167
   35    0.00026840    0.00026120   -0.00000884    0.00000095
   36    0.68978848    0.67840417   -0.01969009    0.00175740

   Low Vibration      Wavenumber
        Nr             [1/cm] 
        1                0.00
        2                0.00
        3                0.00
        4                0.00
        5                0.00
        6                0.00

     Vibration        Wavenumber
        Nr             [1/cm] 
        1               56.10
        2               76.34
        3              115.66
        4              160.22
        5              165.62
        6              169.01
        7              612.87
        8              613.53
        9              625.17
       10              642.84
       11              694.25
       12              697.12
       13              862.81
       14              878.34
       15              918.03
       16              954.28
       17             1117.71
       18             1123.19
       19             1356.42
       20             1358.51
       21             1474.36
       22             1486.35
       23             1650.51
       24             1673.34
       25             1926.85
       26             1975.26
       27             3805.46
       28             3854.65
       29             4149.08
       30             4149.43

 FREQUENCIES * CALCULATION OF NORMAL MODES FOR HF-SCF


 Atomic Coordinates

  Nr  Atom  Charge       X              Y              Z

   1   C     6.00   -0.072026052   -0.000470970   -3.642740761
   2   O     8.00   -1.920794554   -0.003301196   -2.336430952
   3   O     8.00   -0.174352255    0.002557611   -6.113656594
   4   H     1.00   -1.890538746    0.001797250   -6.602437433
   5   O     8.00    2.236233340    0.000040959   -2.856454925
   6   H     1.00    2.272931561   -0.001207131   -1.043796350
   7   C     6.00    0.072009576    0.000220453    3.642670318
   8   O     8.00    1.921368581   -0.001542532    2.337180898
   9   O     8.00    0.173554945    0.001116336    6.113759086
  10   H     1.00    1.889587175   -0.000018569    6.603068241
  11   O     8.00   -2.235957028    0.001252899    2.855670825
  12   H     1.00   -2.272625414    0.000442118    1.042919703

 Gradient norm at reference geometry: 0.21316D-03

 Normal Modes

                              1 A         2 A         3 A         4 A         5 A  
 Wavenumbers [cm-1]           56.10       76.34      115.66      160.22      165.62
 Intensities [km/mol]          0.00        0.00        0.00        0.00        0.00
 Intensities [relative]        0.00        0.00        0.00        0.00        0.00
           CX1              0.00000    -0.00001     0.00006    -0.00336     0.05032
           CY1             -0.00847    -0.00311    -0.04152     0.00002     0.00005
           CZ1              0.00006     0.00002     0.00002     0.08878     0.01897
           OX2              0.00009     0.00012     0.00022    -0.02088     0.09597
           OY2             -0.11788    -0.07939    -0.11503     0.00013     0.00015
           OZ2             -0.00006     0.00003     0.00009     0.07066     0.08195
           OX3             -0.00010    -0.00010    -0.00024     0.00561    -0.04148
           OY3              0.12671    -0.05564     0.09411    -0.00010    -0.00011
           OZ3              0.00023    -0.00004     0.00020     0.09115     0.02267
           HX4             -0.00009    -0.00005    -0.00030     0.00746    -0.06046
           HY4              0.11664    -0.15246     0.10821    -0.00007    -0.00013
           HZ4              0.00021    -0.00007     0.00035     0.08474     0.08956
           OX5              0.00001    -0.00006     0.00015    -0.01463     0.07761
           OY5             -0.00470     0.14031    -0.08179    -0.00001     0.00006
           OZ5              0.00005     0.00008    -0.00021     0.10157    -0.05902
           HX6              0.00005    -0.00000     0.00026    -0.01844     0.09969
           HY6             -0.08387     0.10559    -0.07814     0.00008     0.00010
           HZ6             -0.00000     0.00005    -0.00022     0.10621    -0.06017
           CX7              0.00000     0.00002    -0.00003     0.00313    -0.05028
           CY7             -0.00837    -0.00312     0.04154     0.00000    -0.00005
           CZ7             -0.00007    -0.00002    -0.00003    -0.08883    -0.01897
           OX8             -0.00003    -0.00002     0.00003     0.01894    -0.09557
           OY8             -0.11757    -0.07942     0.11527     0.00011    -0.00016
           OZ8              0.00003     0.00003    -0.00003    -0.07307    -0.08150
           OX9              0.00001    -0.00005    -0.00017    -0.00231     0.04083
           OY9              0.12650    -0.05560    -0.09442    -0.00009     0.00007
           OZ9             -0.00012     0.00000     0.00003    -0.09145    -0.02259
           HX10            -0.00001    -0.00013    -0.00019    -0.00343     0.05968
           HY10             0.11641    -0.15240    -0.10849    -0.00004     0.00001
           HZ10            -0.00005     0.00006     0.00006    -0.08755    -0.08895
           OX11             0.00002     0.00011    -0.00000     0.01339    -0.07739
           OY11            -0.00456     0.14031     0.08185    -0.00004    -0.00002
           OZ11            -0.00013    -0.00010    -0.00008    -0.09883     0.05848
           HX12             0.00002     0.00009     0.00004     0.01520    -0.09904
           HY12            -0.08368     0.10553     0.07831    -0.00011     0.00007
           HZ12            -0.00010    -0.00008    -0.00007    -0.10340     0.05963

                              6 A         7 A         8 A         9 A        10 A  
 Wavenumbers [cm-1]          169.01      612.87      613.53      625.17      642.84
 Intensities [km/mol]          0.00        0.00        0.00        0.00        0.00
 Intensities [relative]        0.00        0.00        0.00        0.00        0.00
           CX1             -0.00707    -0.00005     0.00007     0.05660     0.05752
           CY1             -0.00010     0.02379    -0.02397     0.00010     0.00006
           CZ1             -0.00284     0.00004    -0.00005    -0.03305    -0.02762
           OX2             -0.05959    -0.00002     0.00003     0.04072     0.03883
           OY2             -0.00035     0.00752    -0.00451     0.00010     0.00008
           OZ2             -0.07523     0.00005    -0.00007    -0.06146    -0.06353
           OX3              0.10302     0.00001    -0.00004    -0.09137    -0.08632
           OY3              0.00015     0.04263    -0.04587     0.00004    -0.00001
           OZ3             -0.01051     0.00005    -0.00007    -0.02980    -0.02939
           HX4              0.12601     0.00059    -0.00067    -0.14927    -0.14517
           HY4              0.00006    -0.64665     0.68508    -0.00110    -0.00041
           HZ4             -0.08982    -0.00093     0.00103     0.16421     0.16950
           OX5             -0.03864     0.00000     0.00001     0.01786     0.02056
           OY5              0.00000    -0.02690     0.02795    -0.00014    -0.00010
           OZ5              0.08287    -0.00008     0.00010     0.09250     0.09631
           HX6             -0.10077     0.00005    -0.00007    -0.10844    -0.11235
           HY6             -0.00003     0.04245    -0.04495    -0.00003    -0.00014
           HZ6              0.08514    -0.00003     0.00005     0.10264     0.10505
           CX7             -0.00749    -0.00001    -0.00007    -0.05657     0.05758
           CY7              0.00008    -0.02511    -0.02258     0.00007    -0.00006
           CZ7             -0.00010     0.00000     0.00004     0.03301    -0.02756
           OX8             -0.06081     0.00001    -0.00004    -0.04073     0.03883
           OY8              0.00018    -0.00777    -0.00409     0.00005    -0.00005
           OZ8             -0.07347     0.00001     0.00006     0.06140    -0.06360
           OX9              0.10341    -0.00004     0.00006     0.09131    -0.08638
           OY9             -0.00011    -0.04516    -0.04337    -0.00003     0.00004
           OZ9             -0.00767     0.00000     0.00004     0.02984    -0.02936
           HX10             0.12658     0.00051     0.00064     0.14924    -0.14535
           HY10            -0.00014     0.68456     0.64723    -0.00054     0.00036
           HZ10            -0.08754    -0.00027    -0.00041    -0.16404     0.16968
           OX11            -0.03960     0.00001    -0.00001    -0.01781     0.02058
           OY11             0.00013     0.02844     0.02637    -0.00003     0.00002
           OZ11             0.08644     0.00000    -0.00009    -0.09245     0.09636
           HX12            -0.10193    -0.00006     0.00008     0.10838    -0.11226
           HY12             0.00018    -0.04486    -0.04238    -0.00024     0.00037
           HZ12             0.08886     0.00004    -0.00007    -0.10260     0.10510

                             11 A        12 A        13 A        14 A        15 A  
 Wavenumbers [cm-1]          694.25      697.12      862.81      878.34      918.03
 Intensities [km/mol]          0.00        0.00        0.00        0.00        0.00
 Intensities [relative]        0.00        0.00        0.00        0.00        0.00
           CX1              0.02060    -0.02087     0.00004     0.00007    -0.00011
           CY1             -0.00005     0.00006    -0.07075    -0.13440     0.16760
           CZ1              0.04364    -0.04721    -0.00010    -0.00015     0.00019
           OX2             -0.07543     0.07801     0.00001    -0.00002     0.00003
           OY2              0.00004    -0.00005     0.02396     0.02613    -0.04765
           OZ2             -0.08580     0.08402     0.00006     0.00005    -0.00005
           OX3             -0.02081     0.01699    -0.00001    -0.00002     0.00003
           OY3             -0.00009     0.00009     0.02062     0.03745    -0.04019
           OZ3              0.07018    -0.07717    -0.00005     0.00005    -0.00008
           HX4             -0.04397     0.03907    -0.00000     0.00002    -0.00007
           HY4             -0.00028     0.00031     0.04988     0.01492     0.07164
           HZ4              0.15362    -0.15704    -0.00011    -0.00006     0.00009
           OX5              0.07421    -0.07105    -0.00000    -0.00001     0.00003
           OY5              0.00009    -0.00008    -0.01838     0.00549    -0.05116
           OZ5             -0.03806     0.03590     0.00001     0.00001    -0.00004
           HX6              0.19398    -0.17069    -0.00033    -0.00026     0.00001
           HY6              0.00023    -0.00041     0.65090     0.48631     0.23344
           HZ6             -0.04220     0.04118     0.00051     0.00037     0.00016
           CX7             -0.02057    -0.02082     0.00004    -0.00009    -0.00010
           CY7             -0.00001    -0.00003     0.06797    -0.13633    -0.16712
           CZ7             -0.04374    -0.04713    -0.00004     0.00007     0.00007
           OX8              0.07556     0.07782     0.00003     0.00001     0.00004
           OY8             -0.00002    -0.00001    -0.02348     0.02677     0.04752
           OZ8              0.08593     0.08390     0.00003    -0.00001    -0.00002
           OX9              0.02081     0.01699    -0.00003     0.00004     0.00003
           OY9             -0.00003    -0.00003    -0.01981     0.03799     0.04007
           OZ9             -0.07034    -0.07706    -0.00005     0.00000    -0.00002
           HX10             0.04400     0.03906    -0.00006     0.00002    -0.00007
           HY10            -0.00016    -0.00010    -0.04922     0.01586    -0.07147
           HZ10            -0.15378    -0.15680    -0.00001     0.00002     0.00009
           OX11            -0.07434    -0.07092    -0.00001     0.00002     0.00002
           OY11             0.00006     0.00003     0.01836     0.00517     0.05105
           OZ11             0.03818     0.03578     0.00006    -0.00005    -0.00001
           HX12            -0.19437    -0.17027    -0.00041     0.00030    -0.00019
           HY12             0.00023     0.00048    -0.63836     0.50060    -0.23368
           HZ12             0.04233     0.04106     0.00033    -0.00025     0.00011

                             16 A        17 A        18 A        19 A        20 A  
 Wavenumbers [cm-1]          954.28     1117.71     1123.19     1356.42     1358.51
 Intensities [km/mol]          0.00        0.00        0.00        0.00        0.00
 Intensities [relative]        0.00        0.00        0.00        0.00        0.00
           CX1             -0.00011     0.02822     0.02759    -0.03678     0.02993
           CY1              0.12100     0.00006     0.00008     0.00005    -0.00005
           CZ1              0.00015    -0.03244    -0.03427    -0.04125     0.04332
           OX2              0.00002     0.06531     0.06288     0.02075    -0.01982
           OY2             -0.04809     0.00009     0.00009     0.00004    -0.00003
           OZ2             -0.00004    -0.04243    -0.04623    -0.02193     0.02070
           OX3              0.00002     0.01666     0.01731    -0.03995     0.04088
           OY3             -0.02564    -0.00011    -0.00011    -0.00012     0.00012
           OZ3             -0.00004     0.09639     0.09857     0.07272    -0.07256
           HX4             -0.00007    -0.00585    -0.00622     0.13357    -0.13551
           HY4              0.08286    -0.00023    -0.00025     0.00073    -0.00075
           HZ4              0.00008     0.18203     0.18790    -0.49364     0.50321
           OX5              0.00004    -0.09343    -0.09245     0.04677    -0.04706
           OY5             -0.05208    -0.00003    -0.00002     0.00001    -0.00001
           OZ5             -0.00004    -0.03842    -0.04316     0.01160    -0.01120
           HX6             -0.00007    -0.14802    -0.14917    -0.17748     0.19195
           HY6              0.47271     0.00018     0.00008    -0.00010     0.00010
           HZ6              0.00034    -0.04153    -0.04309     0.01619    -0.01811
           CX7              0.00007     0.02861    -0.02715     0.03713     0.02948
           CY7              0.12110    -0.00001     0.00002     0.00000     0.00001
           CZ7             -0.00003    -0.03298     0.03384     0.04179     0.04285
           OX8             -0.00004     0.06624    -0.06196    -0.02098    -0.01955
           OY8             -0.04810    -0.00007     0.00006     0.00002     0.00002
           OZ8              0.00003    -0.04307     0.04557     0.02215     0.02040
           OX9             -0.00001     0.01687    -0.01702     0.04046     0.04043
           OY9             -0.02566     0.00002    -0.00002    -0.00006    -0.00006
           OZ9              0.00001     0.09784    -0.09719    -0.07354    -0.07164
           HX10             0.00008    -0.00597     0.00615    -0.13532    -0.13406
           HY10             0.08305     0.00010    -0.00009     0.00030     0.00030
           HZ10            -0.00007     0.18465    -0.18510     0.49961     0.49733
           OX11            -0.00000    -0.09473     0.09105    -0.04734    -0.04652
           OY11            -0.05222     0.00004    -0.00003     0.00002     0.00002
           OZ11            -0.00001    -0.03906     0.04262    -0.01177    -0.01110
           HX12             0.00024    -0.15023     0.14704     0.17963     0.18976
           HY12             0.47481     0.00002    -0.00007    -0.00009    -0.00007
           HZ12            -0.00023    -0.04217     0.04251    -0.01643    -0.01795

                             21 A        22 A        23 A        24 A        25 A  
 Wavenumbers [cm-1]         1474.36     1486.35     1650.51     1673.34     1926.85
 Intensities [km/mol]          0.00        0.00        0.00        0.00        0.00
 Intensities [relative]        0.00        0.00        0.00        0.00        0.00
           CX1              0.00496     0.01431     0.08295     0.10654    -0.12691
           CY1             -0.00006    -0.00009    -0.00010    -0.00005    -0.00020
           CZ1              0.04623     0.06209     0.13841     0.11418     0.10359
           OX2              0.04517     0.05115    -0.00118    -0.02203     0.06742
           OY2              0.00007     0.00008     0.00002    -0.00002     0.00011
           OZ2             -0.03954    -0.03799    -0.01804    -0.01026    -0.05047
           OX3             -0.02590    -0.02719    -0.01854    -0.01866     0.01157
           OY3             -0.00002    -0.00001     0.00003     0.00002     0.00004
           OZ3             -0.00214    -0.00761    -0.03512    -0.02973    -0.02313
           HX4              0.04813     0.04960     0.03028     0.03208    -0.02982
           HY4              0.00034     0.00037     0.00026     0.00027    -0.00016
           HZ4             -0.23736    -0.24844    -0.17839    -0.18344     0.10969
           OX5             -0.05931    -0.06226    -0.02592    -0.02417     0.02545
           OY5             -0.00005    -0.00004     0.00002     0.00002     0.00002
           OZ5              0.02227     0.01484    -0.03831    -0.03906    -0.00392
           HX6              0.52822     0.49241    -0.29341    -0.33377    -0.16930
           HY6              0.00021     0.00016    -0.00012    -0.00010     0.00000
           HZ6             -0.00502    -0.00867    -0.01771    -0.00834    -0.02887
           CX7              0.00497    -0.01429     0.08345    -0.10596     0.12714
           CY7              0.00001    -0.00001     0.00000     0.00002    -0.00013
           CZ7              0.04639    -0.06202     0.13911    -0.11345    -0.10355
           OX8              0.04531    -0.05107    -0.00126     0.02198    -0.06752
           OY8             -0.00004     0.00005    -0.00001    -0.00001     0.00007
           OZ8             -0.03961     0.03790    -0.01813     0.01019     0.05048
           OX9             -0.02595     0.02713    -0.01862     0.01853    -0.01160
           OY9              0.00002    -0.00002     0.00000    -0.00000     0.00002
           OZ9             -0.00216     0.00760    -0.03527     0.02952     0.02311
           HX10             0.04831    -0.04958     0.03050    -0.03196     0.02989
           HY10            -0.00013     0.00014    -0.00010     0.00010    -0.00006
           HZ10            -0.23783     0.24794    -0.17935     0.18234    -0.10987
           OX11            -0.05946     0.06215    -0.02603     0.02400    -0.02550
           OY11             0.00004    -0.00004    -0.00000     0.00000     0.00002
           OZ11             0.02228    -0.01476    -0.03856     0.03886     0.00389
           HX12             0.52925    -0.49120    -0.29554     0.33220     0.16937
           HY12            -0.00022     0.00023     0.00016    -0.00011    -0.00011
           HZ12            -0.00505     0.00867    -0.01780     0.00825     0.02890

                             26 A        27 A        28 A        29 A        30 A  
 Wavenumbers [cm-1]         1975.26     3805.46     3854.65     4149.08     4149.43
 Intensities [km/mol]          0.00        0.00        0.00        0.00        0.00
 Intensities [relative]        0.00        0.00        0.00        0.00        0.00
           CX1              0.14551     0.00883     0.00016    -0.00100     0.00102
           CY1              0.00019     0.00001     0.00000     0.00000    -0.00000
           CZ1             -0.07937    -0.00124    -0.00268    -0.00086     0.00059
           OX2             -0.07234    -0.00400    -0.00026    -0.00039     0.00031
           OY2             -0.00011    -0.00000     0.00000    -0.00000     0.00000
           OZ2              0.04935     0.00231     0.00030     0.00074    -0.00056
           OX3             -0.01401    -0.00162    -0.00083    -0.04191     0.03919
           OY3             -0.00003    -0.00000    -0.00000    -0.00002     0.00002
           OZ3              0.01600    -0.00003     0.00150    -0.01352     0.01271
           HX4              0.02791     0.00212     0.02028     0.67488    -0.63132
           HY4              0.00017     0.00001     0.00001     0.00028    -0.00026
           HZ4             -0.12028    -0.00424     0.00483     0.20645    -0.19334
           OX5             -0.03088     0.00006    -0.00248     0.00054    -0.00046
           OY5             -0.00002    -0.00003     0.00003    -0.00000     0.00000
           OZ5              0.00242     0.04313    -0.04345     0.00165    -0.00026
           HX6              0.10012    -0.02792     0.03443    -0.00016     0.00025
           HY6              0.00010     0.00049    -0.00049     0.00001     0.00000
           HZ6             -0.01035    -0.67509     0.68777    -0.01948    -0.00306
           CX7              0.14546    -0.00883     0.00031    -0.00093    -0.00108
           CY7             -0.00012     0.00001    -0.00000     0.00000     0.00000
           CZ7             -0.07915     0.00119    -0.00269    -0.00082    -0.00065
           OX8             -0.07229     0.00400    -0.00032    -0.00037    -0.00034
           OY8              0.00007    -0.00000     0.00000     0.00000     0.00000
           OZ8              0.04926    -0.00231     0.00034     0.00070     0.00060
           OX9             -0.01401     0.00161    -0.00085    -0.03919    -0.04191
           OY9              0.00002    -0.00000     0.00000     0.00003     0.00003
           OZ9              0.01595     0.00006     0.00150    -0.01265    -0.01359
           HX10             0.02792    -0.00179     0.02031     0.63104     0.67503
           HY10            -0.00006     0.00000    -0.00001    -0.00041    -0.00044
           HZ10            -0.12021     0.00431     0.00477     0.19323     0.20692
           OX11            -0.03087    -0.00010    -0.00247     0.00050     0.00050
           OY11             0.00002    -0.00002    -0.00002     0.00000    -0.00000
           OZ11             0.00239    -0.04389    -0.04268     0.00162     0.00037
           HX12             0.09981     0.02851     0.03391    -0.00014    -0.00026
           HY12            -0.00005     0.00027     0.00026    -0.00001     0.00000
           HZ12            -0.01040     0.68711     0.67577    -0.01961     0.00175


 Normal Modes of low/zero frequencies

                                  1           2           3           4           5
 Wavenumbers [cm-1]            0.00        0.00        0.00        0.00        0.00
 Intensities [km/mol]          0.00        0.00        0.00        0.00        0.00
 Intensities [relative]        0.00        0.00        0.00        0.00        0.00
           CX1              0.00000     0.11723     0.00000     0.00000    -0.00000
           CY1             -0.05272    -0.00000     0.04426     0.06110     0.01366
           CZ1              0.02459    -0.00096    -0.02093    -0.00616     0.08131
           OX2              0.01412     0.09986    -0.00325     0.01422    -0.00396
           OY2             -0.01864    -0.00003     0.01146     0.00256    -0.02645
           OZ2              0.04464    -0.02554    -0.02560     0.01383     0.07562
           OX3             -0.02672     0.15009     0.00620    -0.02684     0.00754
           OY3             -0.08836    -0.00000     0.02377     0.09116     0.01653
           OZ3              0.02565    -0.00232    -0.02121    -0.00501     0.08100
           HX4             -0.03202     0.15659     0.00746    -0.03212     0.00906
           HY4             -0.08183    -0.00003    -0.01918     0.05909    -0.01730
           HZ4              0.04424    -0.02514    -0.02556     0.01357     0.07572
           OX5              0.00851     0.10678    -0.00201     0.00851    -0.00243
           OY5             -0.05960     0.00003     0.10297     0.10254     0.05891
           OZ5             -0.00040     0.02974    -0.01507    -0.03116     0.08842
           HX6              0.02812     0.08267    -0.00658     0.02818    -0.00798
           HY6             -0.03315     0.00003     0.11713     0.07963     0.05603
           HZ6             -0.00078     0.03023    -0.01497    -0.03158     0.08853
           CX7              0.07886     0.02035    -0.01851     0.07892    -0.02244
           CY7              0.05363     0.00000     0.10108    -0.03105     0.00201
           CZ7              0.02302     0.00096    -0.02057    -0.00771     0.08176
           OX8              0.06472     0.03771    -0.01516     0.06482    -0.01838
           OY8              0.01956     0.00003     0.13390     0.02749     0.04213
           OZ8              0.00303     0.02555    -0.01586    -0.02777     0.08745
           OX9              0.10561    -0.01251    -0.02480     0.10568    -0.03006
           OY9              0.08928     0.00000     0.12155    -0.06113    -0.00088
           OZ9              0.02191     0.00231    -0.02032    -0.00880     0.08207
           HX10             0.11090    -0.01902    -0.02602     0.11100    -0.03154
           HY10             0.08276     0.00003     0.16450    -0.02908     0.03295
           HZ10             0.00335     0.02513    -0.01595    -0.02741     0.08735
           OX11             0.07035     0.03081    -0.01654     0.07037    -0.02003
           OY11             0.06050    -0.00003     0.04237    -0.07248    -0.04324
           OZ11             0.04799    -0.02973    -0.02643     0.01731     0.07466
           HX12             0.05072     0.05492    -0.01192     0.05075    -0.01444
           HY12             0.03404    -0.00003     0.02821    -0.04957    -0.04035
           HZ12             0.04840    -0.03022    -0.02652     0.01769     0.07454

                                  6
 Wavenumbers [cm-1]            0.00
 Intensities [km/mol]          0.00
 Intensities [relative]        0.00
           CX1              0.00000
           CY1              0.07700
           CZ1              0.01932
           OX2              0.00095
           OY2              0.14829
           OZ2              0.02081
           OX3             -0.00189
           OY3              0.09765
           OZ3              0.01942
           HX4             -0.00232
           HY4              0.17500
           HZ4              0.02082
           OX5              0.00067
           OY5             -0.02789
           OZ5              0.01743
           HX6              0.00209
           HY6             -0.04138
           HZ6              0.01739
           CX7              0.00599
           CY7              0.02293
           CZ7              0.01920
           OX8              0.00485
           OY8             -0.04839
           OZ8              0.01768
           OX9              0.00805
           OY9              0.00231
           OZ9              0.01913
           HX10             0.00840
           HY10            -0.07504
           HZ10             0.01771
           OX11             0.00539
           OY11             0.12780
           OZ11             0.02110
           HX12             0.00387
           HY12             0.14129
           HZ12             0.02112


 Frequencies dumped to record   5400.2
 Frequency information read from record  5400.2

 Zero point energy:  0.08963062 [H]    19671.65 [1/CM]      235.33 [KJ/MOL]


 **********************************************************************************************************************************
 DATASETS  * FILE   NREC   LENGTH (MB)   RECORD NAMES
              1      18       29.81       500      610      700      900      950      970     1000      129      960     1100   
                                          VAR    BASINP    GEOM    SYMINP    ZMAT    AOBASIS   BASIS     P2S    ABASIS      S 
                                         1400     1410     1200     1210     1080     1600     1650     1700   
                                           T        V       H0       H01     AOSYM     SMH    MOLCAS    OPER   

              2       7        1.39       700     1000      520     2100     5300     5450     5400   
                                         GEOM     BASIS   MCVARS     RHF     HESS     NMOD     FREQ   

              4       5       15.62      4100     4000     4200     4300     4400   

 PROGRAMS   *        TOTAL      FREQ      OPTG    HF-SCF       INT
 CPU TIMES  *       245.66    117.94    123.26      1.87      2.37
 REAL TIME  *       254.20 SEC
 DISK USED  *        32.87 MB (local),      976.95 MB (total)
 SF USED    *        15.62 MB
 GA USED    *         0.00 MB       (max)       0.00 MB       (current)
 **********************************************************************************************************************************

 Dump information in style MOLDEN to carbonic_acid_dimer.molden                                                      

 Molecular orbitals read from record     2100.2  Type=RHF/CANONICAL  
 Occupation numbers read from record     2100.2  Type=RHF/RHF  
 Orbital energies read from record       2100.2  Type=RHF/CANONICAL  
 Redundancy group numbers read from rec  2100.2  Type=RHF/RHF  

 DUMP ORBITAL  1.1 AS ORBITAL    1  occ=    2.0000  eig=  -20.6254  GROUP=   2
 DUMP ORBITAL  2.1 AS ORBITAL    2  occ=    2.0000  eig=  -20.6254  GROUP=   2
 DUMP ORBITAL  3.1 AS ORBITAL    3  occ=    2.0000  eig=  -20.6108  GROUP=   2
 DUMP ORBITAL  4.1 AS ORBITAL    4  occ=    2.0000  eig=  -20.6108  GROUP=   2
 DUMP ORBITAL  5.1 AS ORBITAL    5  occ=    2.0000  eig=  -20.5583  GROUP=   2
 DUMP ORBITAL  6.1 AS ORBITAL    6  occ=    2.0000  eig=  -20.5582  GROUP=   2
 DUMP ORBITAL  7.1 AS ORBITAL    7  occ=    2.0000  eig=  -11.4513  GROUP=   2
 DUMP ORBITAL  8.1 AS ORBITAL    8  occ=    2.0000  eig=  -11.4512  GROUP=   2
 DUMP ORBITAL  9.1 AS ORBITAL    9  occ=    2.0000  eig=   -1.5484  GROUP=   2
 DUMP ORBITAL 10.1 AS ORBITAL   10  occ=    2.0000  eig=   -1.5440  GROUP=   2
 DUMP ORBITAL 11.1 AS ORBITAL   11  occ=    2.0000  eig=   -1.4306  GROUP=   2
 DUMP ORBITAL 12.1 AS ORBITAL   12  occ=    2.0000  eig=   -1.4287  GROUP=   2
 DUMP ORBITAL 13.1 AS ORBITAL   13  occ=    2.0000  eig=   -1.3938  GROUP=   2
 DUMP ORBITAL 14.1 AS ORBITAL   14  occ=    2.0000  eig=   -1.3886  GROUP=   2
 DUMP ORBITAL 15.1 AS ORBITAL   15  occ=    2.0000  eig=   -0.9286  GROUP=   2
 DUMP ORBITAL 16.1 AS ORBITAL   16  occ=    2.0000  eig=   -0.9164  GROUP=   2
 DUMP ORBITAL 17.1 AS ORBITAL   17  occ=    2.0000  eig=   -0.7849  GROUP=   2
 DUMP ORBITAL 18.1 AS ORBITAL   18  occ=    2.0000  eig=   -0.7694  GROUP=   2
 DUMP ORBITAL 19.1 AS ORBITAL   19  occ=    2.0000  eig=   -0.7513  GROUP=   2
 DUMP ORBITAL 20.1 AS ORBITAL   20  occ=    2.0000  eig=   -0.7381  GROUP=   2
 DUMP ORBITAL 21.1 AS ORBITAL   21  occ=    2.0000  eig=   -0.7062  GROUP=   2
 DUMP ORBITAL 22.1 AS ORBITAL   22  occ=    2.0000  eig=   -0.7018  GROUP=   2
 DUMP ORBITAL 23.1 AS ORBITAL   23  occ=    2.0000  eig=   -0.6816  GROUP=   2
 DUMP ORBITAL 24.1 AS ORBITAL   24  occ=    2.0000  eig=   -0.6659  GROUP=   2
 DUMP ORBITAL 25.1 AS ORBITAL   25  occ=    2.0000  eig=   -0.6219  GROUP=   2
 DUMP ORBITAL 26.1 AS ORBITAL   26  occ=    2.0000  eig=   -0.5966  GROUP=   2
 DUMP ORBITAL 27.1 AS ORBITAL   27  occ=    2.0000  eig=   -0.5533  GROUP=   2
 DUMP ORBITAL 28.1 AS ORBITAL   28  occ=    2.0000  eig=   -0.5518  GROUP=   2
 DUMP ORBITAL 29.1 AS ORBITAL   29  occ=    2.0000  eig=   -0.5054  GROUP=   2
 DUMP ORBITAL 30.1 AS ORBITAL   30  occ=    2.0000  eig=   -0.5000  GROUP=   2
 DUMP ORBITAL 31.1 AS ORBITAL   31  occ=    2.0000  eig=   -0.4958  GROUP=   2
 DUMP ORBITAL 32.1 AS ORBITAL   32  occ=    2.0000  eig=   -0.4941  GROUP=   2

 Total charge:      64.000000
 Frequency information read from record  5400.2

 **********************************************************************************************************************************

 HF/6-311G(D,P)//HF/6-311G(D,P) energy=   -527.488515407034

    OPTG(HF-SCF)          HF-SCF
   -527.48851541   -527.47934529
 **********************************************************************************************************************************
 Molpro calculation terminated
