[Molden Format]
[Molpro variables]
_NUMVAR=  1112.000000000000    
_AVOGAD= 0.6022140760000000E+24
_BOLTZ= 0.1380649000000000E-22
_CLIGHTSI=  299792458.0000000    
_JOULE= 0.4359744722207100E-17
_JPCAL=  4.184000000000000    
_PLANCK= 0.6626070150000000E-33
_BOHR= 0.5291772109030000E-10
_ECHARG= 0.1602176634000000E-18
_ENULL= 0.8854187812800001E-11
_MU= 0.1660539066600000E-26
_EMASS= 0.9109383701500001E-30
_AMU2AU=  1822.888486217313    
_CLIGHT=  29979245800.00000    
_EV= 0.3674932217565494E-01
_KJOULE= 0.3808798847133432E-03
_KJOULE/MOL= 0.3808798847133432E-03
_CM= 0.4556335252912009E-05
_CM-1= 0.4556335252912009E-05
_DEB2SI= 0.3335640951981520E-29
_KCAL= 0.1593601437640628E-02
_KCAL/MOL= 0.1593601437640628E-02
_KELVIN= 0.3166811563455608E-05
_HERTZ= 0.1519829846057038E-15
_HZ= 0.1519829846057038E-15
_TOA= 0.5291772109030000    
_TOANG= 0.5291772109030000    
_TORAD= 0.1745329251994330E-01
_TOCM=  219474.6313631965    
_TODEBYE=  2.541746473194078    
_TOE= 0.4803204712570263E-09
_TOEV=  27.21138624598803    
_TOHERTZ=  6579683920501656.    
_TOHZ=  6579683920501656.    
_TOK=  315775.0248040668    
_TOKCAL=  627.5094740630558    
_TOKELVIN=  315775.0248040668    
_TOKJ=  2625.499639479825    
_TOKJOULE=  2625.499639479825    
_TOKG= 0.1660539066600000E-26
_ANG=  1.889726124625770    
_ANGSTROM=  1.889726124625770    
_RPAREF=  0.000000000000000    
_RPADISS=  0.000000000000000    
_IGNORE_UNDEF=  2.000000000000000    
_STRICTCHECK=  0.000000000000000    
!SEWARD=  0.000000000000000    
!MULTI=  0.000000000000000    
!DFMULTI=  0.000000000000000    
!NUMHESS=  0.000000000000000    
_SEW_ONEEL=  0.000000000000000    
_CPPDONE=FALSE
_DKROLL_DONE=  0.000000000000000    
_FNUC_DONE=  0.000000000000000    
_FOCKDONE=TRUE
_GRADONE=FALSE
_HESSDONE=TRUE
_INTDONE=TRUE
_SCFDONE=TRUE
_MODUL_BLOCK=FALSE
_MODUL_SLATER=TRUE
_MODUL_MRCC=FALSE
_MODUL_NBO6=FALSE
_MODUL_NECI=FALSE
_MODUL_AIMS=TRUE
_MODUL_HDF5=FALSE
_MODUL_GECCO=FALSE
_ISWINDOWS=FALSE
_MRCC_EXEC=
_FITC_AO_SAVED=FALSE
_FITC_MO_SAVED=FALSE
_LSTYP=SEWARD
_INTYP=INTS
_GEOMTYP=XYZ
_GRADTYP=ALASKA
_DIRECT=FALSE
_DKHO= -1.000000000000000    
_FNUC=  0.000000000000000    
_SYNCM=  0.000000000000000    
_BASIS=6-311G(D,P)
_ZCENTRE=MASS
_ZORIENT=  1.000000000000000    
_NELEC=  64.00000000000000    
!SPIN=  0.000000000000000    
_OPTCONV= 0.5178913097772211E-02
_QSDSTEP=  0.000000000000000    
_QSDIRC=  0.000000000000000    
_PROGRAM=FREQ
_CPUSTEP=  117.9400000000000    
_SYSSTEP=  2.170000000000001    
_WALLSTEP=  120.4500000000000    
!DFSCF=  0.000000000000000    
!SCSGRD=  0.000000000000000    
_NCEN=  12.00000000000000    
_CPUTOT=  245.6600000000000    
_DFTEXFAC=  1.000000000000000    
_DMX=-0.3666057063643723E-03
_DMY= 0.4576122250102518E-03
_DMZ=-0.9641447628689999E-03
_DMX_SCF=-0.3666057063643723E-03
_DMY_SCF= 0.4576122250102518E-03
_DMZ_SCF=-0.9641447628689999E-03
_FREQUENCIES= 0.7640237799961346E-05
_HOMO=  32.10000000000000    
_EHOMO=-0.4940674341291743    
_LUMO=  33.10000000000000    
_ELUMO= 0.1487511409519208    
_ENERGY= -527.4885154070341    
_ENERGY_METHOD=HF
_ENERGY_BASIS=6-311G(D,P)
_GEOMETRY_METHOD=HF
_GEOMETRY_BASIS=6-311G(D,P)
_ENUC=  391.5510667681729    
_GRADENERG= -527.4885151503547    
_GRADEXFAC=  9999.000000000000    
_GRADMETHOD=  1.000000000000000    
_NMRMETHOD=  0.000000000000000    
_NMRMAGNET=  0.000000000000000    
_VIRIAL=-0.1654038506824124E-03
!GRID_FREEZE= -1.000000000000000    
!NEESE_INDEX=  0.000000000000000    
_ITERATIONS=  11.00000000000000    
_LASTNELEC=  64.00000000000000    
_LASTSPIN=  0.000000000000000    
_LASTSYM=  1.000000000000000    
_MPP_PROG=  1.000000000000000    
_MSNSTATES=  0.000000000000000    
_RS2PHASE=  0.000000000000000    
_NPROC_MPP=  6.000000000000000    
_NPROC_SMP=  6.000000000000000    
_NUMSTEP=  0.000000000000000    
_OPTCONVMX= 0.3176686410242885E-02
_OPTCONVRMS= 0.9455358423362658E-03
_OPTGRAD= 0.2270318977107202E-03
_OPTGRADMX= 0.1711461463101989E-03
_OPTGRADRMS= 0.4145016388312231E-04
!GMAXLAST= 0.1711461463101989E-03
!DMAXLAST= 0.3176686410242885E-02
!DELAST= 0.1434111709386343E-05
_OPTSTEP=  19.00000000000000    
_ORBITAL=  2100.200000000000    
_PI=  3.141592653589793    
_SEIG_MIN= 0.6629575068068665E-02
_SEWPROP=TRUE
_STATUS=  1.000000000000000    
_SYSTOT=  8.150000000000000    
_VERSION=  2024001.000000000    
_WALLTOT=  254.2000000000000    
_ZPE= 0.8963061598934521E-01
_DATE=25-Sep-24
_LASTORB=0
_OUTPUT=/home/lme/Theoretische_Chemie/Nomodeco/clusters_nomodeco/carbonic_acid/carbonic_acid_dimer.out
_PGROUP=C1
_TIME=10:32:56
_LIBMOL=/usr/local/molpro/molpro_2024.1.0_sockets/lib/
_VIGRDC=  0.000000000000000    
!VIBCNT=  0.000000000000000    
!SURFREC=  0.000000000000000    
!XSURFREC=  0.000000000000000    
!XPOLYREC=  0.000000000000000    
!ROTREC=  0.000000000000000    
!POLYREC=  0.000000000000000    
!DIPREC=  0.000000000000000    
!DIP4DREC=  0.000000000000000    
!DIPROT=  0.000000000000000    
!DIP4DROT=  0.000000000000000    
!PTREC=  0.000000000000000    
!PT4DREC=  0.000000000000000    
!VSCFREC=  0.000000000000000    
!VCIREC=  0.000000000000000    
!PVCIREC=  0.000000000000000    
!VMP2REC=  0.000000000000000    
!VMCSCFREC=  0.000000000000000    
!VMRCIREC=  0.000000000000000    
!VIBSTATEREC=  0.000000000000000    
!VIBSTATECNT=  0.000000000000000    
!VIBINFO=  0.000000000000000    
!GAREC=  0.000000000000000    
!SCFORB=  21002.00000000000    
!DEFCORE=  8.000000000000000    
!SCORE=  0.000000000000000    
!NEWMOL=  0.000000000000000    
!NEWSYM=  0.000000000000000    
_SLFILES=slscratch
_NGSSTO=  9.000000000000000    
_SIN=SIN
_COS=COS
_TAN=TAN
_ACOS=ACOS
_ASIN=ASIN
_ATAN=ATAN
_COSH=COSH
_SINH=SINH
_TANH=TANH
_ABS=ABS
_MOD=MOD
_ERF=ERF
_REFC=REFC
_ERFC=ERFC
_HYPOT=HYPOT
_J0=J0
_J1=J1
_JN=JN
_GAMMA=GAMMA
_LGAMMA=LGAMMA
_Y0=Y0
_Y1=Y1
_YN=YN
_EXP=EXP
_LOG=LOG
_LOG10=LOG10
_SQRT=SQRT
_INT=INT
_NINT=NINT
_MAX=MAX
_MIN=MIN
_COSMO=  0.000000000000000    
_COSMOIT=  0.000000000000000    
_COSMOES=  0.000000000000000    
_COSMOEDS=  0.000000000000000    
_COSMOEC=  0.000000000000000    
_COSMOEDCORR=  0.000000000000000    
_FEPSI=  1.000000000000000    
_SL_IsMM=  0.000000000000000    
_SL_NSYM=  1.000000000000000    
_SL_System_BitSw=  0.000000000000000    
_SL_Unique_atoms=  0.000000000000000    
_SL_GRAD=  0.000000000000000    
_SL_MAXUPD_Hess=  5.000000000000000    
_SL_N_PRINT_COD=  5.000000000000000    
_SL_PRINT_CODES=  0.000000000000000    
_SL_BasType=  0.000000000000000    
_SL_Energy_Pred=  0.000000000000000    
_SL_New_Coords=  0.000000000000000    
_SL_Total_Nuclea=  0.000000000000000    
_SL_Highest_Mltp=  0.000000000000000    
_SL_Ref_Geom=  0.000000000000000    
_SL_Symmetry_ope=  1.000000000000000    
_SL_agrad=  0.000000000000000    
_SL_GrdMax=  0.000000000000000    
_SL_GrdNorm=  0.000000000000000    
_SL_GrdRMS=  0.000000000000000    
_SL_Hss_Q=  0.000000000000000    
_SL_Hss_X=  0.000000000000000    
_SL_BMxOld=  0.000000000000000    
_SL_KtB=  0.000000000000000    
_SL_TROld=  0.000000000000000    
_SL_No_of_Intern=  0.000000000000000    
_SL_Hess=  0.000000000000000    
_SL_K=  0.000000000000000    
!LATTICE= -1.000000000000000    
!NEWLATTICE=  0.000000000000000    
!LATGRAD_VAR=FALSE
!SEW_LATTICE=  1.000000000000000    
!AIC_ONEEL=  0.000000000000000    
!LOCAL=  0.000000000000000    
!SAVEDOM= -1.000000000000000    
!RESTDOM= -1.000000000000000    
!SAVEDOM_HF= -1.000000000000000    
!RESTDOM_HF= -1.000000000000000    
!HESSREC=  5300.200000000000    
!FREQREC=  5400.200000000000    
!NMODREC=  5450.200000000000    
!GTASKS=  0.000000000000000    
!HTASKS=  0.000000000000000    
!SAVEDOM_EOM= -1.000000000000000    
!RESTDOM_EOM= -1.000000000000000    
!GRADSTATE= -1.000000000000000    
!DEBUG=  0.000000000000000    
!CFIT_CPHF=  0.000000000000000    
!RDOMAUX_CPHF=  0.000000000000000    
!THRAO_CPHF= 0.1000000000000000E-11
!THRMO_CPHF= 0.1000000000000000E-11
!THROV_CPHF= 0.1000000000000000E-13
!THRSW_CPHF= 0.1000000000000000E-11
!THRPROD_CPHF= 0.1000000000000000E-11
!THRAOPR_CPHF= 0.1000000000000000E-11
!CFIT_SCFGRD=  0.000000000000000    
!RDOMAUX_SCFGRD=  0.000000000000000    
!THRAO_SCFGRD= 0.1000000000000000E-11
!THRMO_SCFGRD= 0.1000000000000000E-11
!THROV_SCFGRD= 0.1000000000000000E-13
!THRSW_SCFGRD= 0.1000000000000000E-11
!THRPROD_SCFGRD= 0.1000000000000000E-11
!THRAOPR_SCFGRD= 0.1000000000000000E-11
!LOCFIT_SCF=  0.000000000000000    
!LOCFIT_MP2=  0.000000000000000    
_RIDOM=  0.000000000000000    
!CC2_METHOD=  0.000000000000000    
_BASIS2006=FALSE
_SVDDEL= -1.000000000000000    
_SVDDELA= -1.000000000000000    
_SVDDELP= -1.000000000000000    
_SVDDELF= -1.000000000000000    
_SVDDELS= -1.000000000000000    
_SVDDEL_ABS= -1.000000000000000    
_SVDDELA_ABS= -1.000000000000000    
_SVDDELP_ABS= -1.000000000000000    
_SVDDELF_ABS= -1.000000000000000    
_SVDDELS_ABS= -1.000000000000000    
_MAXBASIS=  0.000000000000000    
!OPT_CONICAL=  0.000000000000000    
!CLEARSP_JGRID=  0.000000000000000    
_GRDHYBR=  0.000000000000000    
_STATEGRAD=  1.000000000000000    
_4EXT_NDISKS=  1.000000000000000    
!EMBEDFLAG=  1.000000000000000    
!EMBED=FALSE
!EMBED_F12=FALSE
!EMBEDNUC=  0.000000000000000    
_EMBEDENERGY=  0.000000000000000    
!EMBED_DFC=FALSE
!NUM_VOIDS=  0.000000000000000    
_IBODY=  0.000000000000000    
_EMBE_CORR=  0.000000000000000    
!EMBED_PROJ=FALSE
!EMB_PROJ_ZMU=  1000000.000000000    
!CORRECTION_HF=  0.000000000000000    
!EMBED_AORB=  0.000000000000000    
!EMBED_NACORR=  0.000000000000000    
!EMBED_MP2=FALSE
!EMBED_TRUNC_PERTURBATION=FALSE
!EMBED_FROZEN=  0.000000000000000    
!EMBED_ACTIVE=  0.000000000000000    
_CHANGE_BASIS=FALSE
_RESTORE_BASIS=FALSE
_FIX_EMBED_GUESS=FALSE
_EMBED_SCF=FALSE
_NEOBAS=FALSE
_NEOOVE=FALSE
_PRINEO=FALSE
_HUZINAGA_T=FALSE
_HUZINAGA_F=FALSE
_HUZINAGA=FALSE
_HUZINAGA_CORRECT=FALSE
!FASTLATGRAD=  1.000000000000000    
!FASTVLAMBDA= -1.000000000000000    
!IFORCE= -1.000000000000000    
!USESYM= -1.000000000000000    
_SINDEX=  0.000000000000000    
_AVDOM_OSV=  0.000000000000000    
_AVDOM_PNO=  0.000000000000000    
_AVDOM_PNOCC=  0.000000000000000    
_AVDOM_TNO=  0.000000000000000    
_AVDOM_TNOIT=  0.000000000000000    
_AVDOM_PAO=  0.000000000000000    
_AVDOM_LMO=  0.000000000000000    
_CC2OSV_FLAG=  0.000000000000000    
_EOMCCSD_CONV=FALSE
_TMADC2_FLAG=FALSE
_PROPADC2_FLAG=FALSE
_LEN_VirQ=  0.000000000000000    
_GRDCC2LR_FLAG=FALSE
_GRDADC2_FLAG=FALSE
_RO_VGLOBAL=  0.000000000000000    
_OPT=FALSE
_FREQ=FALSE
_HESS=FALSE
_CMRCC_callName=EMPTY
_CMRCC_callCount=  0.000000000000000    
_GECCO_CIROOT=  1.000000000000000    
_SYM_CATION=  1.000000000000000    
_MON_A=FALSE
_MON_B=FALSE
_MAXGEOM=  100.0000000000000    
!MAXGEOM=  100.0000000000000    
_NCORE=  0.000000000000000    
_NLARGECORE=  0.000000000000000    
GX1=-0.3811454532730194E-01
GY1=-0.2492264486388055E-03
GZ1= -1.927655395776284    
GX2= -1.016440704733917    
GY2=-0.1746917459957620E-02
GZ2= -1.236386014434806    
GX3=-0.9226324018923404E-01
GY3= 0.1353429214935216E-02
GZ3= -3.235207744649926    
GX4= -1.000430020532387    
GY4= 0.9510639186606420E-03
GZ4= -3.493859425792594    
GX5=  1.183363721824230    
GY5= 0.2167450064222481E-04
GZ5= -1.511570850102707    
GX6=  1.202783583903258    
GY6=-0.6387861608661364E-03
GZ6=-0.5523532411692292    
GX7= 0.3810582655326896E-01
GY7= 0.1166586249441083E-03
GZ7=  1.927618119351047    
GX8=  1.016744466963972    
GY8=-0.8162728411317005E-03
GZ8=  1.236782868864701    
GX9= 0.9184132153776593E-01
GY9= 0.5907397148866580E-03
GZ9=  3.235261981148250    
GX10= 0.9999264709920951    
GY10=-0.9826487988850663E-05
GZ10=  3.494193235171589    
GX11= -1.183217503879410    
GY11= 0.6630056769581183E-03
GZ11=  1.511155922386812    
GX12= -1.202621578036693    
GY12= 0.2339585100016027E-03
GZ12= 0.5518893395385331    
CX1=-0.7202605203323553E-01
CY1=-0.4709697309404534E-03
CZ1= -3.642740760674272    
OX2= -1.920794553868712    
OY2=-0.3301195561646807E-02
OZ2= -2.336430951599387    
OX3=-0.1743522553282178    
OY3= 0.2557610545294825E-02
OZ3= -6.113656593656583    
HX4= -1.890538745659947    
HY4= 0.1797250333281974E-02
HZ4= -6.602437432690257    
OX5=  2.236233340065631    
OY5= 0.4095887010183017E-04
OZ5= -2.856454924661870    
HX6=  2.272931560772998    
HY6=-0.1207130896238138E-02
HZ6= -1.043796349859211    
CX7= 0.7200957593817076E-01
CY7= 0.2204528512198010E-03
CZ7=  3.642670318439669    
OX8=  1.921368581290522    
OY8=-0.1542532112709075E-02
OZ8=  2.337180897783233    
OX9= 0.1735549446300717    
OY9= 0.1116336272075297E-02
OZ9=  6.113759085784373    
HX10=  1.889587174938614    
HY10=-0.1856937106585253E-04
HZ10=  6.603068240994389    
OX11= -2.235957028195415    
OY11= 0.1252899148522950E-02
OZ11=  2.855670824917311    
HX12= -2.272625414054609    
HY12= 0.4421175084285483E-03
HZ12=  1.042919702828429    
[Atoms] Angs
C     1    6        -0.0381145453       -0.0002492264       -1.9276553958
O     2    8        -1.0164407047       -0.0017469175       -1.2363860144
O     3    8        -0.0922632402        0.0013534292       -3.2352077446
H     4    1        -1.0004300205        0.0009510639       -3.4938594258
O     5    8         1.1833637218        0.0000216745       -1.5115708501
H     6    1         1.2027835839       -0.0006387862       -0.5523532412
C     7    6         0.0381058266        0.0001166586        1.9276181194
O     8    8         1.0167444670       -0.0008162728        1.2367828689
O     9    8         0.0918413215        0.0005907397        3.2352619811
H    10    1         0.9999264710       -0.0000098265        3.4941932352
O    11    8        -1.1832175039        0.0006630057        1.5111559224
H    12    1        -1.2026215780        0.0002339585        0.5518893395
[GTO]
   1 0
 s    6  1.00
  0.4563240000D+04  0.1966650249D-02
  0.6820240000D+03  0.1523060193D-01
  0.1549730000D+03  0.7612690966D-01
  0.4445530000D+02  0.2608010331D+00
  0.1302900000D+02  0.6164620782D+00
  0.1827730000D+01  0.2210060280D+00
 s    3  1.00
  0.2096420000D+02  0.1146600807D+00
  0.4803310000D+01  0.9199996477D+00
  0.1459330000D+01 -0.3030682134D-02
 s    1  1.00
  0.4834560000D+00  0.1000000000D+01
 s    1  1.00
  0.1455850000D+00  0.1000000000D+01
 p    3  1.00
  0.2096420000D+02  0.4024869267D-01
  0.4803310000D+01  0.2375939567D+00
  0.1459330000D+01  0.8158538515D+00
 p    1  1.00
  0.4834560000D+00  0.1000000000D+01
 p    1  1.00
  0.1455850000D+00  0.1000000000D+01
 d    1  1.00
  0.6260000000D+00  0.1000000000D+01
  
   2 0
 s    6  1.00
  0.8588500000D+04  0.1895150083D-02
  0.1297230000D+04  0.1438590063D-01
  0.2992960000D+03  0.7073200310D-01
  0.8737710000D+02  0.2400010105D+00
  0.2567890000D+02  0.5947970261D+00
  0.3740040000D+01  0.2808020123D+00
 s    3  1.00
  0.4211750000D+02  0.1138890124D+00
  0.9628370000D+01  0.9208111006D+00
  0.2853320000D+01 -0.3274470358D-02
 s    1  1.00
  0.9056610000D+00  0.1000000000D+01
 s    1  1.00
  0.2556110000D+00  0.1000000000D+01
 p    3  1.00
  0.4211750000D+02  0.3651139738D-01
  0.9628370000D+01  0.2371529830D+00
  0.2853320000D+01  0.8197019412D+00
 p    1  1.00
  0.9056610000D+00  0.1000000000D+01
 p    1  1.00
  0.2556110000D+00  0.1000000000D+01
 d    1  1.00
  0.1292000000D+01  0.1000000000D+01
  
   3 0
 s    6  1.00
  0.8588500000D+04  0.1895150083D-02
  0.1297230000D+04  0.1438590063D-01
  0.2992960000D+03  0.7073200310D-01
  0.8737710000D+02  0.2400010105D+00
  0.2567890000D+02  0.5947970261D+00
  0.3740040000D+01  0.2808020123D+00
 s    3  1.00
  0.4211750000D+02  0.1138890124D+00
  0.9628370000D+01  0.9208111006D+00
  0.2853320000D+01 -0.3274470358D-02
 s    1  1.00
  0.9056610000D+00  0.1000000000D+01
 s    1  1.00
  0.2556110000D+00  0.1000000000D+01
 p    3  1.00
  0.4211750000D+02  0.3651139738D-01
  0.9628370000D+01  0.2371529830D+00
  0.2853320000D+01  0.8197019412D+00
 p    1  1.00
  0.9056610000D+00  0.1000000000D+01
 p    1  1.00
  0.2556110000D+00  0.1000000000D+01
 d    1  1.00
  0.1292000000D+01  0.1000000000D+01
  
   4 0
 s    3  1.00
  0.3386500000D+02  0.2549381454D-01
  0.5094790000D+01  0.1903731086D+00
  0.1158790000D+01  0.8521614860D+00
 s    1  1.00
  0.3258400000D+00  0.1000000000D+01
 s    1  1.00
  0.1027410000D+00  0.1000000000D+01
 p    1  1.00
  0.7500000000D+00  0.1000000000D+01
  
   5 0
 s    6  1.00
  0.8588500000D+04  0.1895150083D-02
  0.1297230000D+04  0.1438590063D-01
  0.2992960000D+03  0.7073200310D-01
  0.8737710000D+02  0.2400010105D+00
  0.2567890000D+02  0.5947970261D+00
  0.3740040000D+01  0.2808020123D+00
 s    3  1.00
  0.4211750000D+02  0.1138890124D+00
  0.9628370000D+01  0.9208111006D+00
  0.2853320000D+01 -0.3274470358D-02
 s    1  1.00
  0.9056610000D+00  0.1000000000D+01
 s    1  1.00
  0.2556110000D+00  0.1000000000D+01
 p    3  1.00
  0.4211750000D+02  0.3651139738D-01
  0.9628370000D+01  0.2371529830D+00
  0.2853320000D+01  0.8197019412D+00
 p    1  1.00
  0.9056610000D+00  0.1000000000D+01
 p    1  1.00
  0.2556110000D+00  0.1000000000D+01
 d    1  1.00
  0.1292000000D+01  0.1000000000D+01
  
   6 0
 s    3  1.00
  0.3386500000D+02  0.2549381454D-01
  0.5094790000D+01  0.1903731086D+00
  0.1158790000D+01  0.8521614860D+00
 s    1  1.00
  0.3258400000D+00  0.1000000000D+01
 s    1  1.00
  0.1027410000D+00  0.1000000000D+01
 p    1  1.00
  0.7500000000D+00  0.1000000000D+01
  
   7 0
 s    6  1.00
  0.4563240000D+04  0.1966650249D-02
  0.6820240000D+03  0.1523060193D-01
  0.1549730000D+03  0.7612690966D-01
  0.4445530000D+02  0.2608010331D+00
  0.1302900000D+02  0.6164620782D+00
  0.1827730000D+01  0.2210060280D+00
 s    3  1.00
  0.2096420000D+02  0.1146600807D+00
  0.4803310000D+01  0.9199996477D+00
  0.1459330000D+01 -0.3030682134D-02
 s    1  1.00
  0.4834560000D+00  0.1000000000D+01
 s    1  1.00
  0.1455850000D+00  0.1000000000D+01
 p    3  1.00
  0.2096420000D+02  0.4024869267D-01
  0.4803310000D+01  0.2375939567D+00
  0.1459330000D+01  0.8158538515D+00
 p    1  1.00
  0.4834560000D+00  0.1000000000D+01
 p    1  1.00
  0.1455850000D+00  0.1000000000D+01
 d    1  1.00
  0.6260000000D+00  0.1000000000D+01
  
   8 0
 s    6  1.00
  0.8588500000D+04  0.1895150083D-02
  0.1297230000D+04  0.1438590063D-01
  0.2992960000D+03  0.7073200310D-01
  0.8737710000D+02  0.2400010105D+00
  0.2567890000D+02  0.5947970261D+00
  0.3740040000D+01  0.2808020123D+00
 s    3  1.00
  0.4211750000D+02  0.1138890124D+00
  0.9628370000D+01  0.9208111006D+00
  0.2853320000D+01 -0.3274470358D-02
 s    1  1.00
  0.9056610000D+00  0.1000000000D+01
 s    1  1.00
  0.2556110000D+00  0.1000000000D+01
 p    3  1.00
  0.4211750000D+02  0.3651139738D-01
  0.9628370000D+01  0.2371529830D+00
  0.2853320000D+01  0.8197019412D+00
 p    1  1.00
  0.9056610000D+00  0.1000000000D+01
 p    1  1.00
  0.2556110000D+00  0.1000000000D+01
 d    1  1.00
  0.1292000000D+01  0.1000000000D+01
  
   9 0
 s    6  1.00
  0.8588500000D+04  0.1895150083D-02
  0.1297230000D+04  0.1438590063D-01
  0.2992960000D+03  0.7073200310D-01
  0.8737710000D+02  0.2400010105D+00
  0.2567890000D+02  0.5947970261D+00
  0.3740040000D+01  0.2808020123D+00
 s    3  1.00
  0.4211750000D+02  0.1138890124D+00
  0.9628370000D+01  0.9208111006D+00
  0.2853320000D+01 -0.3274470358D-02
 s    1  1.00
  0.9056610000D+00  0.1000000000D+01
 s    1  1.00
  0.2556110000D+00  0.1000000000D+01
 p    3  1.00
  0.4211750000D+02  0.3651139738D-01
  0.9628370000D+01  0.2371529830D+00
  0.2853320000D+01  0.8197019412D+00
 p    1  1.00
  0.9056610000D+00  0.1000000000D+01
 p    1  1.00
  0.2556110000D+00  0.1000000000D+01
 d    1  1.00
  0.1292000000D+01  0.1000000000D+01
  
  10 0
 s    3  1.00
  0.3386500000D+02  0.2549381454D-01
  0.5094790000D+01  0.1903731086D+00
  0.1158790000D+01  0.8521614860D+00
 s    1  1.00
  0.3258400000D+00  0.1000000000D+01
 s    1  1.00
  0.1027410000D+00  0.1000000000D+01
 p    1  1.00
  0.7500000000D+00  0.1000000000D+01
  
  11 0
 s    6  1.00
  0.8588500000D+04  0.1895150083D-02
  0.1297230000D+04  0.1438590063D-01
  0.2992960000D+03  0.7073200310D-01
  0.8737710000D+02  0.2400010105D+00
  0.2567890000D+02  0.5947970261D+00
  0.3740040000D+01  0.2808020123D+00
 s    3  1.00
  0.4211750000D+02  0.1138890124D+00
  0.9628370000D+01  0.9208111006D+00
  0.2853320000D+01 -0.3274470358D-02
 s    1  1.00
  0.9056610000D+00  0.1000000000D+01
 s    1  1.00
  0.2556110000D+00  0.1000000000D+01
 p    3  1.00
  0.4211750000D+02  0.3651139738D-01
  0.9628370000D+01  0.2371529830D+00
  0.2853320000D+01  0.8197019412D+00
 p    1  1.00
  0.9056610000D+00  0.1000000000D+01
 p    1  1.00
  0.2556110000D+00  0.1000000000D+01
 d    1  1.00
  0.1292000000D+01  0.1000000000D+01
  
  12 0
 s    3  1.00
  0.3386500000D+02  0.2549381454D-01
  0.5094790000D+01  0.1903731086D+00
  0.1158790000D+01  0.8521614860D+00
 s    1  1.00
  0.3258400000D+00  0.1000000000D+01
 s    1  1.00
  0.1027410000D+00  0.1000000000D+01
 p    1  1.00
  0.7500000000D+00  0.1000000000D+01


[MO]
 Sym=      1.1
 Ene=     -20.6254
 Spin= Alpha
 Occup=    2.000000
1 -0.000003206759373
2 -0.000041456111306
3 0.000188357128977
4 0.000476109672940
5 0.000000574922601
6 0.000000056754960
7 -0.000050384390479
8 0.000004611929380
9 0.000000431046626
10 -0.000334390286460
11 0.000200920171225
12 0.000000943356331
13 -0.000686841675673
14 -0.000113289880084
15 -0.000036415625412
16 0.000149705505496
17 -0.000000180225276
18 0.000097272338422
19 -0.000000202477419
20 -0.000150052083468
21 -0.000126888098861
22 -0.000022018955628
23 0.000307729598614
24 -0.000004591624286
25 -0.000000027691205
26 0.000020198830864
27 0.000031372167893
28 0.000000082151987
29 -0.000054100926402
30 0.000130704059261
31 -0.000000037099102
32 0.000105682053494
33 0.000020045098490
34 -0.000008839593928
35 -0.000011205504562
36 0.000000040604415
37 -0.000015936089212
38 -0.000000001407356
39 0.55141918468144
40 0.47164825153544
41 0.005802415924517
42 -0.001305634128480
43 -0.001319565058194
44 -0.000002551823918
45 0.001166039544431
46 0.000503429223467
47 0.000000883967013
48 -0.000379921113782
49 -0.000161435377274
50 0.000000242273892
51 -0.000273327252699
52 -0.000000627845895
53 0.000078153001674
54 -0.000077525155779
55 -0.000000011022188
56 -0.000056199370333
57 0.000000197673288
58 0.000211128567823
59 0.000116886842494
60 0.000030982953399
61 0.000064626803598
62 -0.000000054048152
63 0.000082501768948
64 -0.000483594164850
65 -0.000413894328176
66 0.000004362404598
67 -0.000141037177186
68 0.000001214797678
69 -0.000000018183992
70 0.000013991786363
71 0.000009002600381
72 0.000000051756462
73 -0.000036842728450
74 -0.000021938807655
75 -0.000000166061919
76 0.000106907200484
77 0.000005769490512
78 -0.000004901797532
79 -0.000000867692979
80 -0.000000002240270
81 0.000011034867374
82 -0.000000006796618
83 -0.000012741599654
84 0.000065732044866
85 0.000011686040786
86 -0.000025412416054
87 -0.000000001884731
88 -0.000022349332390
89 -0.000000349685448
90 0.000001882905729
91 -0.000012426285620
92 -0.000036233695036
93 0.000000007702749
94 0.000000001149659
95 -0.000002305425303
96 0.000001213243536
97 -0.000000004404260
98 0.000006563886258
99 0.000027550068218
100 -0.000000019221755
101 -0.000066918385455
102 0.000003892423631
103 -0.000000474445288
104 -0.000003417978343
105 0.000000000935752
106 0.000000135681123
107 -0.000000003330203
108 -0.000000665500321
109 -0.000000815770933
110 0.000003157231007
111 -0.000032726830879
112 -0.000001572658995
113 -0.000000002026318
114 -0.000000925872163
115 0.000005636435249
116 0.000000007331039
117 0.000003401239998
118 -0.000007527866458
119 -0.000000021246170
120 0.000000556561150
121 0.000001596500195
122 -0.000000977541558
123 -0.000000618958637
124 -0.000000000958177
125 0.000000163375939
126 0.000000001024734
127 -0.000443460660574
128 -0.000378071550608
129 -0.000016415703954
130 0.000061694042131
131 -0.000002224589877
132 0.000000000675628
133 0.000000482125948
134 0.000005163578415
135 0.000000001106150
136 0.000002342685580
137 -0.000009789677657
138 -0.000000012181835
139 -0.000021175220482
140 0.000000198071869
141 -0.000000543861502
142 0.000000345789632
143 -0.000000000750097
144 0.000000906936028
145 -0.000000000164884
146 -0.000000240692556
147 -0.000004665625121
148 0.000011455940328
149 0.000002722808069
150 -0.000000000299738
151 0.000001518717248
152 -0.000004365438913
153 -0.000003295717935
154 -0.000000639677265
155 -0.000012833495862
156 0.000001279925280
157 0.000000005097064
158 -0.000000378483599
159 -0.000004888473126
160 -0.000000012936471
161 0.000004607636581
162 0.000012896215221
163 0.000000009805110
164 0.000022706545196
165 0.000002871691281
166 0.000002075402602
167 -0.000004947093883
168 0.000000000531600
169 0.000000164846561
170 0.000000005628765
171 0.000014596547796
172 -0.000037545001277
173 0.000065547871395
174 -0.000001617743087
175 0.000000055592691
176 0.000022933825932
 Sym=      2.1
 Ene=     -20.6254
 Spin= Alpha
 Occup=    2.000000
1 -0.000000354815526
2 0.000001816155652
3 -0.000012121488307
4 -0.000035436434250
5 -0.000000006556462
6 0.000000002933170
7 0.000002225875930
8 -0.000001202494129
9 -0.000000012669016
10 -0.000007103542823
11 -0.000027213318611
12 -0.000000037946536
13 0.000065835759711
14 0.000003713595840
15 -0.000000533651275
16 -0.000003179944564
17 -0.000000001187729
18 0.000000294034706
19 0.000000010859443
20 -0.000000909252918
21 -0.000001021566101
22 0.000003120139220
23 -0.000032243674779
24 0.000001565578068
25 -0.000000002003031
26 0.000000960735024
27 -0.000005586088374
28 0.000000007144816
29 -0.000003499123999
30 0.000007741637304
31 -0.000000027017527
32 -0.000000363853438
33 0.000001630145707
34 -0.000000992870489
35 -0.000000637275218
36 0.000000002959812
37 0.000000137636429
38 -0.000000002274650
39 0.000443495767220
40 0.000380573483327
41 -0.000007082260083
42 0.000059593676791
43 0.000000101560609
44 -0.000000005318931
45 0.000001392464151
46 -0.000004353044901
47 0.000000012963390
48 -0.000002951227210
49 0.000009538982043
50 -0.000000048979374
51 0.000020729566016
52 0.000000197083343
53 -0.000000417965343
54 0.000000220882000
55 0.000000000432089
56 0.000000816974308
57 0.000000000022472
58 0.000000098745254
59 -0.000004474967959
60 0.000011506757750
61 -0.000002618326628
62 0.000000002808894
63 -0.000001383987126
64 -0.000005175139089
65 -0.000003989517870
66 -0.000000627188716
67 -0.000013081147394
68 -0.000001278930002
69 0.000000001653005
70 0.000000400058974
71 0.000004905709204
72 -0.000000002598761
73 -0.000004658861107
74 -0.000012918802836
75 0.000000020218495
76 -0.000022544904073
77 0.000002877234390
78 0.000002067118202
79 -0.000004944352592
80 -0.000000000859057
81 0.000000185431424
82 0.000000006368096
83 0.000014565985540
84 -0.000037354140781
85 0.000065521550379
86 0.000001561242669
87 0.000000020478554
88 -0.000022936272481
89 -0.000003208750367
90 -0.000041441921870
91 0.000188240369321
92 0.000476001497306
93 -0.000000593600923
94 0.000000020221312
95 0.000050363048639
96 -0.000004728676074
97 0.000000134985761
98 0.000334350916866
99 -0.000201120272842
100 0.000000388734397
101 0.000686403118523
102 -0.000113342554067
103 -0.000036433041935
104 0.000149775596002
105 0.000000100015528
106 0.000097144326644
107 0.000000016083536
108 -0.000150094424288
109 -0.000126926456741
110 -0.000021994621252
111 0.000307543742774
112 0.000004595189726
113 -0.000000009726881
114 -0.000020192163508
115 -0.000031374356732
116 0.000000035981524
117 0.000054057262270
118 -0.000130647613079
119 0.000000057491960
120 -0.000105654472098
121 0.000020061650133
122 -0.000008835845245
123 -0.000011225804887
124 -0.000000028550198
125 -0.000015918535700
126 0.000000008102770
127 0.55141921183014
128 0.47164826775620
129 0.005802250278232
130 -0.001305193736626
131 0.001319913806461
132 -0.000001422194973
133 -0.001165507958616
134 -0.000503511793951
135 0.000000509943008
136 0.000379758617480
137 0.000161316769078
138 0.000000002389904
139 0.000273268732622
140 -0.000000588179835
141 0.000078180095068
142 -0.000077591915233
143 0.000000056545331
144 -0.000056185056193
145 -0.000000024044776
146 0.000211125429453
147 0.000116857571864
148 0.000031045662743
149 -0.000064588476058
150 0.000000019203648
151 -0.000082515263054
152 -0.000484053107376
153 -0.000414287384866
154 0.000004366291874
155 -0.000141078859482
156 -0.000001212222182
157 -0.000000005841109
158 -0.000013992429984
159 -0.000009004934488
160 0.000000024700729
161 0.000036846941711
162 0.000021968995161
163 -0.000000054952185
164 -0.000106874938214
165 0.000005770779742
166 -0.000004900577287
167 -0.000000870202454
168 -0.000000001567937
169 0.000011032345403
170 -0.000000005319840
171 -0.000012717054578
172 0.000065613696576
173 0.000011756728747
174 0.000025392167391
175 -0.000000008052331
176 0.000022384254804
 Sym=      3.1
 Ene=     -20.6108
 Spin= Alpha
 Occup=    2.000000
1 -0.000002662843628
2 -0.000045687928245
3 0.000206441214415
4 0.000385954167773
5 0.000049458674413
6 0.000000011112291
7 0.000012467524943
8 0.000344038144253
9 0.000000121495761
10 0.000106578559156
11 0.000637585657977
12 0.000000405182603
13 0.000012038402142
14 0.000076111619756
15 -0.000032369911072
16 -0.000043741708684
17 -0.000000107553544
18 0.000166516657626
19 0.000000119519386
20 -0.000190831321477
21 -0.000163719846153
22 -0.000008717671048
23 0.000291726492922
24 -0.000020708161282
25 -0.000000017662662
26 -0.000004505092618
27 0.000061035194701
28 0.000000078185212
29 -0.000001936618571
30 -0.000044354079972
31 0.000000116481633
32 -0.000174978286511
33 0.000003185996331
34 -0.000007602173956
35 0.000004416177625
36 0.000000039780054
37 -0.000025174505540
38 -0.000000044398346
39 0.000486912792985
40 0.000415854374532
41 0.000015758817642
42 -0.000122251007086
43 -0.000013740992916
44 -0.000000003672100
45 -0.000003458272222
46 0.000034325692250
47 0.000000014425464
48 0.000001171993046
49 -0.000097555307792
50 -0.000000051225610
51 -0.000005645291418
52 -0.000006188310069
53 -0.000004276881443
54 0.000010465191512
55 -0.000000013620363
56 0.000006877463200
57 -0.000000019764313
58 -0.000007578602914