[Molden Format]
[Molpro variables]
_NUMVAR=  1076.000000000000    
_AVOGAD= 0.6022140760000000E+24
_BOLTZ= 0.1380649000000000E-22
_CLIGHTSI=  299792458.0000000    
_JOULE= 0.4359744722207100E-17
_JPCAL=  4.184000000000000    
_PLANCK= 0.6626070150000000E-33
_BOHR= 0.5291772109030000E-10
_ECHARG= 0.1602176634000000E-18
_ENULL= 0.8854187812800001E-11
_MU= 0.1660539066600000E-26
_EMASS= 0.9109383701500001E-30
_AMU2AU=  1822.888486217313    
_CLIGHT=  29979245800.00000    
_EV= 0.3674932217565494E-01
_KJOULE= 0.3808798847133432E-03
_KJOULE/MOL= 0.3808798847133432E-03
_CM= 0.4556335252912009E-05
_CM-1= 0.4556335252912009E-05
_DEB2SI= 0.3335640951981520E-29
_KCAL= 0.1593601437640628E-02
_KCAL/MOL= 0.1593601437640628E-02
_KELVIN= 0.3166811563455608E-05
_HERTZ= 0.1519829846057038E-15
_HZ= 0.1519829846057038E-15
_TOA= 0.5291772109030000    
_TOANG= 0.5291772109030000    
_TORAD= 0.1745329251994330E-01
_TOCM=  219474.6313631965    
_TODEBYE=  2.541746473194078    
_TOE= 0.4803204712570263E-09
_TOEV=  27.21138624598803    
_TOHERTZ=  6579683920501656.    
_TOHZ=  6579683920501656.    
_TOK=  315775.0248040668    
_TOKCAL=  627.5094740630558    
_TOKELVIN=  315775.0248040668    
_TOKJ=  2625.499639479825    
_TOKJOULE=  2625.499639479825    
_TOKG= 0.1660539066600000E-26
_ANG=  1.889726124625770    
_ANGSTROM=  1.889726124625770    
_RPAREF=  0.000000000000000    
_RPADISS=  0.000000000000000    
_IGNORE_UNDEF=  2.000000000000000    
_STRICTCHECK=  0.000000000000000    
!SEWARD=  0.000000000000000    
!MULTI=  0.000000000000000    
!DFMULTI=  0.000000000000000    
!NUMHESS=  0.000000000000000    
_SEW_ONEEL=  0.000000000000000    
_CPPDONE=FALSE
_DKROLL_DONE=  0.000000000000000    
_FNUC_DONE=  0.000000000000000    
_FOCKDONE=TRUE
_GRADONE=FALSE
_HESSDONE=TRUE
_INTDONE=TRUE
_SCFDONE=TRUE
_MODUL_BLOCK=FALSE
_MODUL_SLATER=TRUE
_MODUL_MRCC=FALSE
_MODUL_NBO6=FALSE
_MODUL_NECI=FALSE
_MODUL_AIMS=TRUE
_MODUL_HDF5=FALSE
_MODUL_GECCO=FALSE
_ISWINDOWS=FALSE
_MRCC_EXEC=
_FITC_AO_SAVED=FALSE
_FITC_MO_SAVED=FALSE
_LSTYP=SEWARD
_INTYP=INTS
_GEOMTYP=XYZ
_GRADTYP=ALASKA
_DIRECT=FALSE
_DKHO= -1.000000000000000    
_FNUC=  0.000000000000000    
_SYNCM=  0.000000000000000    
_BASIS=6-311G(D,P)
_ZCENTRE=MASS
_ZORIENT=  1.000000000000000    
_NELEC=  20.00000000000000    
!SPIN=  0.000000000000000    
_OPTCONV= 0.3967159452819786E-02
_QSDSTEP=  0.000000000000000    
_QSDIRC=  0.000000000000000    
_PROGRAM=FREQ
_CPUSTEP= 0.8200000000000003    
_SYSSTEP= 0.3000000000000003E-01
_WALLSTEP= 0.8600000000000000    
!DFSCF=  0.000000000000000    
!SCSGRD=  0.000000000000000    
_NCEN=  6.000000000000000    
_CPUTOT=  5.350000000000001    
_DFTEXFAC=  1.000000000000000    
_DMX=  0.000000000000000    
_DMY=-0.5367897346632886    
_DMZ=  1.474694677134696    
_DMX_SCF=  0.000000000000000    
_DMY_SCF=-0.5367897346632886    
_DMZ_SCF=  1.474694677134696    
_FREQUENCIES= -159.3880305981691    
_HOMO=  2.200000000000000    
_EHOMO=-0.4682102710393167    
_LUMO=  9.100000000000000    
_ELUMO= 0.1334425212876300    
_ENERGY= -152.1019461993666    
_ENERGY_METHOD=HF
_ENERGY_BASIS=6-311G(D,P)
_GEOMETRY_METHOD=HF
_GEOMETRY_BASIS=6-311G(D,P)
_ENUC=  36.29350668348678    
_GRADENERG= -152.1019459349855    
_GRADEXFAC=  9999.000000000000    
_GRADMETHOD=  1.000000000000000    
_NMRMETHOD=  0.000000000000000    
_NMRMAGNET=  0.000000000000000    
_VIRIAL= 0.1377696804953226E-03
!GRID_FREEZE= -1.000000000000000    
!NEESE_INDEX=  0.000000000000000    
_ITERATIONS=  10.00000000000000    
_LASTNELEC=  20.00000000000000    
_LASTSPIN=  0.000000000000000    
_LASTSYM=  1.000000000000000    
_MPP_PROG=  1.000000000000000    
_MSNSTATES=  0.000000000000000    
_RS2PHASE=  0.000000000000000    
_NPROC_MPP=  6.000000000000000    
_NPROC_SMP=  6.000000000000000    
_NUMSTEP=  0.000000000000000    
_OPTCONVMX= 0.2811038249985479E-02
_OPTCONVRMS= 0.1402602675568592E-02
_OPTGRAD= 0.2224978992009142E-03
_OPTGRADMX= 0.1327886178391489E-03
_OPTGRADRMS= 0.7416596640030474E-04
!GMAXLAST= 0.1327886178391489E-03
!DMAXLAST= 0.2811038249985479E-02
!DELAST= 0.2066867040184661E-05
_OPTSTEP=  18.00000000000000    
_ORBITAL=  2100.200000000000    
_PI=  3.141592653589793    
_SEIG_MIN= 0.1458897911379901E-01
_SEWPROP=TRUE
_STATUS=  1.000000000000000    
_SYSTOT=  1.000000000000000    
_VERSION=  2024001.000000000    
_WALLTOT=  6.520000000000000    
_ZPE= 0.4867166480072588E-01
_DATE=03-Jun-24
_LASTORB=0
_OUTPUT=/home/lme/Bachelor_Thesis_Lukas_Meinschad/topology_calculations/water_planar/water_planar.out
_PGROUP=Cs
_TIME=10:45:37
_LIBMOL=/usr/local/molpro/molpro_2024.1.0_sockets/lib/
_VIGRDC=  0.000000000000000    
!VIBCNT=  0.000000000000000    
!SURFREC=  0.000000000000000    
!XSURFREC=  0.000000000000000    
!XPOLYREC=  0.000000000000000    
!ROTREC=  0.000000000000000    
!POLYREC=  0.000000000000000    
!DIPREC=  0.000000000000000    
!DIP4DREC=  0.000000000000000    
!DIPROT=  0.000000000000000    
!DIP4DROT=  0.000000000000000    
!PTREC=  0.000000000000000    
!PT4DREC=  0.000000000000000    
!VSCFREC=  0.000000000000000    
!VCIREC=  0.000000000000000    
!PVCIREC=  0.000000000000000    
!VMP2REC=  0.000000000000000    
!VMCSCFREC=  0.000000000000000    
!VMRCIREC=  0.000000000000000    
!VIBSTATEREC=  0.000000000000000    
!VIBSTATECNT=  0.000000000000000    
!VIBINFO=  0.000000000000000    
!GAREC=  0.000000000000000    
!SCFORB=  21002.00000000000    
!DEFCORE=  2.000000000000000    
!SCORE=  0.000000000000000    
!NEWMOL=  0.000000000000000    
!NEWSYM=  0.000000000000000    
_SLFILES=slscratch
_NGSSTO=  9.000000000000000    
_SIN=SIN
_COS=COS
_TAN=TAN
_ACOS=ACOS
_ASIN=ASIN
_ATAN=ATAN
_COSH=COSH
_SINH=SINH
_TANH=TANH
_ABS=ABS
_MOD=MOD
_ERF=ERF
_REFC=REFC
_ERFC=ERFC
_HYPOT=HYPOT
_J0=J0
_J1=J1
_JN=JN
_GAMMA=GAMMA
_LGAMMA=LGAMMA
_Y0=Y0
_Y1=Y1
_YN=YN
_EXP=EXP
_LOG=LOG
_LOG10=LOG10
_SQRT=SQRT
_INT=INT
_NINT=NINT
_MAX=MAX
_MIN=MIN
_COSMO=  0.000000000000000    
_COSMOIT=  0.000000000000000    
_COSMOES=  0.000000000000000    
_COSMOEDS=  0.000000000000000    
_COSMOEC=  0.000000000000000    
_COSMOEDCORR=  0.000000000000000    
_FEPSI=  1.000000000000000    
_SL_IsMM=  0.000000000000000    
_SL_NSYM=  2.000000000000000    
_SL_System_BitSw=  0.000000000000000    
_SL_Unique_atoms=  0.000000000000000    
_SL_GRAD=  0.000000000000000    
_SL_MAXUPD_Hess=  5.000000000000000    
_SL_N_PRINT_COD=  5.000000000000000    
_SL_PRINT_CODES=  0.000000000000000    
_SL_BasType=  0.000000000000000    
_SL_Energy_Pred=  0.000000000000000    
_SL_New_Coords=  0.000000000000000    
_SL_Total_Nuclea=  0.000000000000000    
_SL_Highest_Mltp=  0.000000000000000    
_SL_Ref_Geom=  0.000000000000000    
_SL_Symmetry_ope=  1.000000000000000    
_SL_agrad=  0.000000000000000    
_SL_GrdMax=  0.000000000000000    
_SL_GrdNorm=  0.000000000000000    
_SL_GrdRMS=  0.000000000000000    
_SL_Hss_Q=  0.000000000000000    
_SL_Hss_X=  0.000000000000000    
_SL_BMxOld=  0.000000000000000    
_SL_KtB=  0.000000000000000    
_SL_TROld=  0.000000000000000    
_SL_No_of_Intern=  0.000000000000000    
_SL_Hess=  0.000000000000000    
_SL_K=  0.000000000000000    
!LATTICE= -1.000000000000000    
!NEWLATTICE=  0.000000000000000    
!LATGRAD_VAR=FALSE
!SEW_LATTICE=  1.000000000000000    
!AIC_ONEEL=  0.000000000000000    
!LOCAL=  0.000000000000000    
!SAVEDOM= -1.000000000000000    
!RESTDOM= -1.000000000000000    
!SAVEDOM_HF= -1.000000000000000    
!RESTDOM_HF= -1.000000000000000    
!HESSREC=  5300.200000000000    
!FREQREC=  5400.200000000000    
!NMODREC=  5450.200000000000    
!GTASKS=  0.000000000000000    
!HTASKS=  0.000000000000000    
!SAVEDOM_EOM= -1.000000000000000    
!RESTDOM_EOM= -1.000000000000000    
!GRADSTATE= -1.000000000000000    
!DEBUG=  0.000000000000000    
!CFIT_CPHF=  0.000000000000000    
!RDOMAUX_CPHF=  0.000000000000000    
!THRAO_CPHF= 0.1000000000000000E-11
!THRMO_CPHF= 0.1000000000000000E-11
!THROV_CPHF= 0.1000000000000000E-13
!THRSW_CPHF= 0.1000000000000000E-11
!THRPROD_CPHF= 0.1000000000000000E-11
!THRAOPR_CPHF= 0.1000000000000000E-11
!CFIT_SCFGRD=  0.000000000000000    
!RDOMAUX_SCFGRD=  0.000000000000000    
!THRAO_SCFGRD= 0.1000000000000000E-11
!THRMO_SCFGRD= 0.1000000000000000E-11
!THROV_SCFGRD= 0.1000000000000000E-13
!THRSW_SCFGRD= 0.1000000000000000E-11
!THRPROD_SCFGRD= 0.1000000000000000E-11
!THRAOPR_SCFGRD= 0.1000000000000000E-11
!LOCFIT_SCF=  0.000000000000000    
!LOCFIT_MP2=  0.000000000000000    
_RIDOM=  0.000000000000000    
!CC2_METHOD=  0.000000000000000    
_BASIS2006=FALSE
_SVDDEL= -1.000000000000000    
_SVDDELA= -1.000000000000000    
_SVDDELP= -1.000000000000000    
_SVDDELF= -1.000000000000000    
_SVDDELS= -1.000000000000000    
_SVDDEL_ABS= -1.000000000000000    
_SVDDELA_ABS= -1.000000000000000    
_SVDDELP_ABS= -1.000000000000000    
_SVDDELF_ABS= -1.000000000000000    
_SVDDELS_ABS= -1.000000000000000    
_MAXBASIS=  0.000000000000000    
!OPT_CONICAL=  0.000000000000000    
!CLEARSP_JGRID=  0.000000000000000    
_GRDHYBR=  0.000000000000000    
_STATEGRAD=  1.000000000000000    
_4EXT_NDISKS=  1.000000000000000    
!EMBEDFLAG=  1.000000000000000    
!EMBED=FALSE
!EMBED_F12=FALSE
!EMBEDNUC=  0.000000000000000    
_EMBEDENERGY=  0.000000000000000    
!EMBED_DFC=FALSE
!NUM_VOIDS=  0.000000000000000    
_IBODY=  0.000000000000000    
_EMBE_CORR=  0.000000000000000    
!EMBED_PROJ=FALSE
!EMB_PROJ_ZMU=  1000000.000000000    
!CORRECTION_HF=  0.000000000000000    
!EMBED_AORB=  0.000000000000000    
!EMBED_NACORR=  0.000000000000000    
!EMBED_MP2=FALSE
!EMBED_TRUNC_PERTURBATION=FALSE
!EMBED_FROZEN=  0.000000000000000    
!EMBED_ACTIVE=  0.000000000000000    
_CHANGE_BASIS=FALSE
_RESTORE_BASIS=FALSE
_FIX_EMBED_GUESS=FALSE
_EMBED_SCF=FALSE
_NEOBAS=FALSE
_NEOOVE=FALSE
_PRINEO=FALSE
_HUZINAGA_T=FALSE
_HUZINAGA_F=FALSE
_HUZINAGA=FALSE
_HUZINAGA_CORRECT=FALSE
!FASTLATGRAD=  1.000000000000000    
!FASTVLAMBDA= -1.000000000000000    
!IFORCE= -1.000000000000000    
!USESYM= -1.000000000000000    
_SINDEX=  0.000000000000000    
_AVDOM_OSV=  0.000000000000000    
_AVDOM_PNO=  0.000000000000000    
_AVDOM_PNOCC=  0.000000000000000    
_AVDOM_TNO=  0.000000000000000    
_AVDOM_TNOIT=  0.000000000000000    
_AVDOM_PAO=  0.000000000000000    
_AVDOM_LMO=  0.000000000000000    
_CC2OSV_FLAG=  0.000000000000000    
_EOMCCSD_CONV=FALSE
_TMADC2_FLAG=FALSE
_PROPADC2_FLAG=FALSE
_LEN_VirQ=  0.000000000000000    
_GRDCC2LR_FLAG=FALSE
_GRDADC2_FLAG=FALSE
_RO_VGLOBAL=  0.000000000000000    
_OPT=FALSE
_FREQ=FALSE
_HESS=FALSE
_CMRCC_callName=EMPTY
_CMRCC_callCount=  0.000000000000000    
_GECCO_CIROOT=  1.000000000000000    
_SYM_CATION=  2.000000000000000    
_MON_A=FALSE
_MON_B=FALSE
_MAXGEOM=  100.0000000000000    
!MAXGEOM=  100.0000000000000    
_NCORE=  0.000000000000000    
_NLARGECORE=  0.000000000000000    
GX1=  0.000000000000000    
GY1= 0.5603693047909570E-01
GZ1= -1.545263044185409    
GX2=  0.000000000000000    
GY2=-0.1412377153768803E-01
GZ2=  1.447979374409497    
GX3=  0.000000000000000    
GY3=-0.8308936493765580    
GZ3= -1.857328235305964    
GX4=  0.000000000000000    
GY4=-0.9861260161437709E-02
GZ4=-0.6026022390373427    
GX5=  0.000000000000000    
GY5= 0.8294538393769437    
GZ5=  1.865897867063342    
GX6=  0.000000000000000    
GY6=-0.6538910069193055    
GZ6=  2.137994646855732    
OX1=  0.000000000000000    
OY1= 0.1058944514701852    
OZ1= -2.920123944015914    
OX2=  0.000000000000000    
OY2=-0.2669006005301495E-01
OZ2=  2.736284451740905    
HX3=  0.000000000000000    
HY3= -1.570161436012526    
HZ3= -3.509841688262761    
HX4=  0.000000000000000    
HY4=-0.1863508094880018E-01
HZ4= -1.138753193866850    
HX5=  0.000000000000000    
HY5=  1.567440589441758    
HZ5=  3.526035945273100    
HX6=  0.000000000000000    
HY6= -1.235674918433262    
HZ6=  4.040224338473325    
[Atoms] Angs
O     1    8         0.0000000000        0.0560369305       -1.5452630442
O     2    8         0.0000000000       -0.0141237715        1.4479793744
H     3    1         0.0000000000       -0.8308936494       -1.8573282353
H     4    1         0.0000000000       -0.0098612602       -0.6026022390
H     5    1         0.0000000000        0.8294538394        1.8658978671
H     6    1         0.0000000000       -0.6538910069        2.1379946469
[GTO]
   1 0
 s    6  1.00
  0.8588500000D+04  0.1895150083D-02
  0.1297230000D+04  0.1438590063D-01
  0.2992960000D+03  0.7073200310D-01
  0.8737710000D+02  0.2400010105D+00
  0.2567890000D+02  0.5947970261D+00
  0.3740040000D+01  0.2808020123D+00
 s    3  1.00
  0.4211750000D+02  0.1138890124D+00
  0.9628370000D+01  0.9208111006D+00
  0.2853320000D+01 -0.3274470358D-02
 s    1  1.00
  0.9056610000D+00  0.1000000000D+01
 s    1  1.00
  0.2556110000D+00  0.1000000000D+01
 p    3  1.00
  0.4211750000D+02  0.3651139738D-01
  0.9628370000D+01  0.2371529830D+00
  0.2853320000D+01  0.8197019412D+00
 p    1  1.00
  0.9056610000D+00  0.1000000000D+01
 p    1  1.00
  0.2556110000D+00  0.1000000000D+01
 d    1  1.00
  0.1292000000D+01  0.1000000000D+01
  
   2 0
 s    6  1.00
  0.8588500000D+04  0.1895150083D-02
  0.1297230000D+04  0.1438590063D-01
  0.2992960000D+03  0.7073200310D-01
  0.8737710000D+02  0.2400010105D+00
  0.2567890000D+02  0.5947970261D+00
  0.3740040000D+01  0.2808020123D+00
 s    3  1.00
  0.4211750000D+02  0.1138890124D+00
  0.9628370000D+01  0.9208111006D+00
  0.2853320000D+01 -0.3274470358D-02
 s    1  1.00
  0.9056610000D+00  0.1000000000D+01
 s    1  1.00
  0.2556110000D+00  0.1000000000D+01
 p    3  1.00
  0.4211750000D+02  0.3651139738D-01
  0.9628370000D+01  0.2371529830D+00
  0.2853320000D+01  0.8197019412D+00
 p    1  1.00
  0.9056610000D+00  0.1000000000D+01
 p    1  1.00
  0.2556110000D+00  0.1000000000D+01
 d    1  1.00
  0.1292000000D+01  0.1000000000D+01
  
   3 0
 s    3  1.00
  0.3386500000D+02  0.2549381454D-01
  0.5094790000D+01  0.1903731086D+00
  0.1158790000D+01  0.8521614860D+00
 s    1  1.00
  0.3258400000D+00  0.1000000000D+01
 s    1  1.00
  0.1027410000D+00  0.1000000000D+01
 p    1  1.00
  0.7500000000D+00  0.1000000000D+01
  
   4 0
 s    3  1.00
  0.3386500000D+02  0.2549381454D-01
  0.5094790000D+01  0.1903731086D+00
  0.1158790000D+01  0.8521614860D+00
 s    1  1.00
  0.3258400000D+00  0.1000000000D+01
 s    1  1.00
  0.1027410000D+00  0.1000000000D+01
 p    1  1.00
  0.7500000000D+00  0.1000000000D+01
  
   5 0
 s    3  1.00
  0.3386500000D+02  0.2549381454D-01
  0.5094790000D+01  0.1903731086D+00
  0.1158790000D+01  0.8521614860D+00
 s    1  1.00
  0.3258400000D+00  0.1000000000D+01
 s    1  1.00
  0.1027410000D+00  0.1000000000D+01
 p    1  1.00
  0.7500000000D+00  0.1000000000D+01
  
   6 0
 s    3  1.00
  0.3386500000D+02  0.2549381454D-01
  0.5094790000D+01  0.1903731086D+00
  0.1158790000D+01  0.8521614860D+00
 s    1  1.00
  0.3258400000D+00  0.1000000000D+01
 s    1  1.00
  0.1027410000D+00  0.1000000000D+01
 p    1  1.00
  0.7500000000D+00  0.1000000000D+01


[MO]
 Sym=      1.1
 Ene=     -20.5696
 Spin= Alpha
 Occup=    2.000000
1 -0.000016580904898
2 -0.000021929014407
3 0.000066632634865
4 -0.000241777284372
5 0.0
6 -0.000005630365459
7 -0.000010688176992
8 0.0
9 0.000023317350456
10 0.000042332058565
11 0.0
12 0.000004110252232
13 -0.000137769423374
14 0.000007019222745
15 -0.000006965436261
16 -0.000000053786484
17 0.0
18 0.0
19 -0.000003814743750
20 0.55142527641614
21 0.47166793363338
22 0.005621994229496
23 -0.000429965923186
24 0.0
25 0.000297456329030
26 0.001647894672106
27 0.0
28 -0.000108093351810
29 -0.000606404690467
30 0.0
31 -0.000004718368194
32 0.000260276016386
33 0.000104153007582
34 -0.000089260155561
35 -0.000014892852022
36 0.0
37 0.0
38 0.000009929018050
39 0.000000625389953
40 0.000063389574610
41 -0.000095692938145
42 0.0
43 0.000018302565715
44 0.000014356596735
45 -0.000026080295970
46 0.000145183378925
47 0.000228908466120
48 0.0
49 0.000001247870986
50 0.000033706317256
51 0.000191918243533
52 0.000077178929052
53 0.000045995414181
54 0.0
55 -0.000048051907099
56 -0.000018087059702
57 0.000200894505134
58 -0.000013477371844
59 0.000085572918334
60 0.0
61 0.000032043457978
62 -0.000014371673147
 Sym=      2.1
 Ene=     -20.5063
 Spin= Alpha
 Occup=    2.000000
1 0.55142538938256
2 0.47167165932435
3 0.005616330943196
4 -0.000567603937863
5 0.0
6 -0.001471784477344
7 0.000888373057236
8 0.0
9 0.000517882505499
10 -0.000279212707870
11 0.0
12 -0.000077868378043
13 -0.000023587239070
14 0.000110977353213
15 -0.000053288255618
16 -0.000057689097595
17 0.0
18 0.0
19 -0.000048187930378
20 0.000017096448795
21 0.000012710110641
22 0.000015043205278
23 -0.000029198633177
24 0.0
25 0.000001407648619
26 0.000009618124445
27 0.0
28 -0.000003244227512
29 -0.000029830599135
30 0.0
31 0.000013253509894
32 0.000098249166370
33 0.000000689185036
34 -0.000000888786548
35 0.000000199601512
36 0.0
37 0.0
38 0.000002046269467
39 0.000207657915050
40 0.000112874632185
41 0.000046199256961
42 0.0
43 0.000055373492973
44 0.000057707629867
45 0.000196769396708
46 0.000115782806835
47 0.000224042615137
48 0.0
49 -0.000027812614119
50 -0.000059488967366
51 -0.000002061809378
52 -0.000007387261653
53 -0.000028617177513
54 0.0
55 0.000006418381361
56 -0.000009186710406
57 -0.000005418086572
58 0.000000341140316
59 -0.000027372974176
60 0.0
61 -0.000007685718430
62 -0.000010329945918
 Sym=      3.1
 Ene=      -1.3761
 Spin= Alpha
 Occup=    2.000000
1 -0.005800269682916
2 -0.009635882146547
3 0.026649002422925
4 0.020723989665624
5 0.0
6 -0.001441484889441
7 0.002161971545622
8 0.0
9 -0.002695690283489
10 0.002552362256239
11 0.0
12 -0.000955256884193
13 0.003266424770282
14 -0.000553141957346
15 0.000154910885596
16 0.000398231071750
17 0.0
18 0.0
19 0.000052226250925
20 -0.11349320162081
21 -0.18959086205584
22 0.53847078596522
23 0.37293558471803
24 0.0
25 0.006552654406190
26 0.035687669300939
27 0.0
28 0.011001597319205
29 0.059363620644574
30 0.0
31 0.003502900018196
32 0.013741019127489
33 -0.008416919586684
34 0.005594883250883
35 0.002822036335801
36 0.0
37 0.0
38 -0.000648472438783
39 0.004673698611080
40 0.002364827403035
41 0.001854891522616
42 0.0
43 0.000989611961531
44 0.000346244317134
45 0.007676789793960
46 0.005283543254192
47 -0.001847953430339
48 0.0
49 -0.000068526696855
50 -0.001597131746149
51 0.095514599109847
52 0.080439400165607
53 -0.003024131442424
54 0.0
55 -0.026484409281468
56 -0.009236075988304
57 0.095676885724888
58 0.082286683252119
59 -0.003102281145171
60 0.0
61 0.021528570261589
62 -0.018406750798601
 Sym=      4.1
 Ene=      -1.3153
 Spin= Alpha
 Occup=    2.000000
1 -0.11320664002480
2 -0.18904709236661
3 0.53555733975452
4 0.37893885248249
5 0.0
6 -0.031701697670724
7 0.020232804529053
8 0.0
9 -0.053007383118001
10 0.033304689145927
11 0.0
12 -0.016600248989451
13 0.013335613330424
14 -0.008358596967326
15 0.003732237584439
16 0.004626359382887
17 0.0
18 0.0
19 0.001609028803823
20 0.006459328690609
21 0.010823776550731
22 -0.031046947579174
23 -0.020830828093760
24 0.0
25 -0.000469400799541
26 -0.004388447016306
27 0.0
28 -0.000663280131694
29 -0.005555500984608
30 0.0
31 -0.000489649026891
32 -0.006696170283294
33 0.000595498443251
34 -0.000324122605240
35 -0.000271375838010
36 0.0
37 0.0
38 0.000038426443049
39 0.097246366798483
40 0.081657190553353
41 0.000518354616793
42 0.0
43 0.024903339087860
44 0.011668940141256
45 0.094106019265602
46 0.075111677834361
47 -0.008262276957409
48 0.0
49 -0.000804609408636
50 -0.027907066318321
51 -0.006038114578653
52 -0.005339917177058
53 0.002001475920469
54 0.0
55 0.001498752848031
56 0.000734570426228
57 -0.006312573698934
58 -0.005161763555093
59 0.001331775222361
60 0.0
61 -0.001139166852075
62 0.001328624963365
 Sym=      5.1
 Ene=      -0.7463
 Spin= Alpha
 Occup=    2.000000
1 0.000553148937267
2 0.000941270060694
3 -0.002802189203701
4 -0.002995854100859
5 0.0
6 0.006423868438064
7 0.010302698931224
8 0.0
9 0.009665505397083
10 0.015741024260975
11 0.0
12 0.006813816336605
13 0.009821882395944
14 0.000018144055325
15 -0.001299173742769
16 0.001281029687445
17 0.0
18 0.0
19 -0.000614855556012
20 -0.000352458985143
21 -0.000599271846321
22 0.001756938452465
23 0.004096976876153
24 0.0
25 0.22388063799217
26 -0.044175741326853
27 0.0
28 0.34404370988223
29 -0.067876598509087
30 0.0
31 0.21380533977456
32 -0.042835069763922
33 0.000089945661610
34 0.008784905436716
35 -0.008874851098326
36 0.0
37 0.0
38 0.026637928227854
39 -0.008388741879873
40 -0.009768674381528
41 -0.004473080893653
42 0.0
43 -0.001626346016462
44 -0.000186756516916
45 0.009040858049363
46 0.010956525778046
47 0.004750808523477
48 0.0
49 0.001133417573824
50 -0.001546574819100
51 0.14939489609712
52 0.20238693150679
53 0.048226431214541
54 0.0
55 -0.022761703722391
56 -0.021103563489912
57 -0.15194921997722
58 -0.20661564658755
59 -0.050000172519731
60 0.0
61 -0.014247104278079
62 0.028017919851655
 Sym=      6.1
 Ene=      -0.6890
 Spin= Alpha
 Occup=    2.000000
1 0.000526041739458
2 0.000886131861386
3 -0.002499982045366
4 0.000757657860297
5 0.0
6 0.11514408187299
7 0.18504618935433
8 0.0
9 0.17683050956334
10 0.28335170593908
11 0.0
12 0.10553202155574
13 0.17788682838147
14 -0.000087035066530
15 -0.021742213442918
16 0.021829248509448
17 0.0
18 0.0
19 -0.011438028792884
20 -0.006316741235825
21 -0.010779042395512
22 0.033148771319764
23 0.059720518355379
24 0.0
25 -0.025434155912076
26 -0.059241862812082
27 0.0
28 -0.038873688380090
29 -0.090412095369740
30 0.0
31 -0.026540388047413
32 -0.073534640362042
33 0.002653620894651
34 -0.000584275117268
35 -0.002069345777383
36 0.0
37 0.0
38 -0.002663052370849
39 -0.14388284083741
40 -0.20330461195150
41 -0.056687547593197
42 0.0
43 -0.030110164250230
44 -0.000575580196626
45 0.14613096305741
46 0.19347316792089
47 0.060399212661921
48 0.0
49 0.010094222541034
50 -0.029799223500816
51 -0.032756087900255
52 -0.049004396207136
53 -0.008986127776125
54 0.0
55 0.008439632306267
56 -0.001711272180078
57 -0.013060781832651
58 -0.019439767741779
59 -0.003169100314863
60 0.0
61 -0.006588085227991
62 -0.002167347459718
 Sym=      7.1
 Ene=      -0.6025
 Spin= Alpha
 Occup=    2.000000
1 -0.012812630006798
2 -0.021655101072567
3 0.062909905707793
4 0.11166671612455
5 0.0
6 0.080997114852182
7 0.027569055321360
8 0.0
9 0.12024633134414
10 0.044640796989556
11 0.0
12 0.098663391673987
13 0.022420763537936
14 0.002840647081666
15 -0.008653792006574
16 0.005813144924907
17 0.0
18 0.0
19 -0.001047536045846
20 0.034041176119986
21 0.057857468471012
22 -0.17419820525850
23 -0.29913331318805
24 0.0
25 0.042602807059074
26 0.23521905176709
27 0.0
28 0.063520845100721
29 0.35120143838238
30 0.0
31 0.060746406554872
32 0.31564677783385
33 -0.011252264843121
34 -0.002143892903744
35 0.013396157746864
36 0.0
37 0.0
38 0.003663540771048
39 -0.060179782274015
40 -0.089144515007308
41 -0.017517528905799
42 0.0
43 -0.010206611342682
44 -0.005091362668268
45 0.014998039833723
46 0.024197118564189
47 -0.037642139699736
48 0.0
49 0.008069275922348
50 -0.006721686779975
51 0.081674086862888
52 0.12161688572382
53 0.035308653179797
54 0.0
55 -0.024359427461502
56 0.013211165937264
57 0.081820059270370
58 0.13201516246478
59 0.023673255102795
60 0.0
61 0.027769003435615
62 0.002807485564177
 Sym=      8.1
 Ene=      -0.5380
 Spin= Alpha
 Occup=    2.000000
1 -0.035212621208109
2 -0.059924791362422
3 0.18224764809933
4 0.30322627186225
5 0.0
6 0.20164026019395
7 -0.15003961156036
8 0.0
9 0.29850773593299
10 -0.22170503160053
11 0.0
12 0.27159253972335
13 -0.20818257708228
14 0.012424865021249
15 -0.009288131467850
16 -0.003136733553399
17 0.0
18 0.0
19 0.011149052436186
20 -0.010600153414318
21 -0.018051386027703
22 0.054802696166004
23 0.089722006045763
24 0.0
25 -0.011093061726340
26 -0.061453687973469
27 0.0
28 -0.016338154851332
29 -0.092364212358074
30 0.0
31 -0.009094728463893
32 -0.080827095509152
33 0.003199174995364
34 0.001155097553507
35 -0.004354272548871
36 0.0
37 0.0
38 -0.000579621324702
39 -0.078939867990503
40 -0.13424897640386
41 -0.032098418575473
42 0.0
43 -0.006462274697485
44 -0.029236323596931
45 -0.088905860374690
46 -0.14107641504063
47 0.004286108993730
48 0.0
49 0.021596281927672
50 0.021772639329971
51 -0.019922336438438
52 -0.040795571103686
53 -0.005138773008720
54 0.0
55 0.007288316920943
56 -0.003454376946642
57 -0.021771774776589
58 -0.027843810273676
59 -0.017914981884704
60 0.0
61 -0.007538251173615
62 -0.002851366493204
 Sym=      1.2
 Ene=      -0.5286
 Spin= Alpha
 Occup=    2.000000
1 0.0
2 0.0
3 0.0
4 0.0
5 0.014028113975178
6 0.0
7 0.0
8 0.019454197513447
9 0.0
10 0.0
11 0.025055051793120
12 0.0
13 0.0
14 0.0
15 0.0
16 0.0
17 -0.000714981720021
18 0.000486392224568
19 0.0
20 0.0
21 0.0
22 0.0
23 0.0
24 0.29152970806506
25 0.0
26 0.0
27 0.43727854160992
28 0.0
29 0.0
30 0.46444814504393
31 0.0
32 0.0
33 0.0
34 0.0
35 0.0
36 0.002858466892691
37 0.015456131081149
38 0.0
39 0.0
40 0.0
41 0.0
42 0.001049921395979
43 0.0
44 0.0
45 0.0
46 0.0
47 0.0
48 0.003676039717394
49 0.0
50 0.0
51 0.0
52 0.0
53 0.0
54 0.030378886226385
55 0.0
56 0.0
57 0.0
58 0.0
59 0.0
60 0.030632038478106
61 0.0
62 0.0
 Sym=      2.2
 Ene=      -0.4682
 Spin= Alpha
 Occup=    2.000000
1 0.0
2 0.0
3 0.0
4 0.0
5 0.29035175112433
6 0.0
7 0.0
8 0.43394563126314
9 0.0
10 0.0
11 0.46949384821525
12 0.0
13 0.0
14 0.0
15 0.0
16 0.0
17 -0.014054652108437
18 0.008886145192169
19 0.0
20 0.0
21 0.0
22 0.0
23 0.0
24 -0.016267174178383
25 0.0
26 0.0
27 -0.026364429611415
28 0.0
29 0.0
30 -0.020918588734155
31 0.0
32 0.0
33 0.0
34 0.0
35 0.0
36 -0.000137371618162
37 -0.001120153208189
38 0.0
39 0.0
40 0.0
41 0.0
42 0.031631157806707
43 0.0
44 0.0
45 0.0
46 0.0
47 0.0
48 0.029346210433690
49 0.0
50 0.0
51 0.0
52 0.0
53 0.0
54 -0.002634568898313
55 0.0
56 0.0
57 0.0
58 0.0
59 0.0
60 -0.002713759482476
61 0.0
62 0.0
 Sym=      9.1
 Ene=       0.1334
 Spin= Alpha
 Occup=    0.000000
1 0.011176576830528
2 0.018681572529355
3 -0.046626667216673
4 -0.18875564713966
5 0.0
6 0.018938360844653
7 -0.020671558867216
8 0.0
9 0.025039711653885
10 -0.038137813742419
11 0.0
12 0.054452653445003
13 -0.005819790750514
14 0.000273789221751
15 -0.001077913820816
16 0.000804124599065
17 0.0
18 0.0
19 0.001333852129780
20 0.034499503197275
21 0.056691126044308
22 -0.11575769034799
23 -0.83067706662726
24 0.0
25 -0.006545137654096
26 -0.059046617672474
27 0.0
28 -0.012760129665088
29 -0.093188954948036
30 0.0
31 -0.018140657731966
32 -0.17869241640802
33 0.004428906877837
34 -0.001360493882820
35 -0.003068412995017
36 0.0
37 0.0
38 -0.000240006706557
39 0.012129281688246
40 -0.039305912638945
41 0.31139374993087
42 0.0
43 -0.000985294746641
44 -0.005912793289234
45 0.010033625665737
46 -0.040834444408044
47 0.10284595860845
48 0.0
49 0.001305219801679
50 0.006995596915923
51 0.033746455346757
52 -0.035503038572695
53 0.72242137267761
54 0.0
55 0.002741592367526
56 -0.003385826671027
57 0.035659870069244
58 -0.054956213917586
59 0.84924497667540
60 0.0
61 -0.004405446791139
62 -0.001185481086615
 Sym=     10.1
 Ene=       0.1960
 Spin= Alpha
 Occup=    0.000000
1 0.027445605479934
2 0.044716846360416
3 -0.083121935535234
4 -0.70996038680036
5 0.0
6 0.078954642583868
7 0.018932398025883
8 0.0
9 0.10771717127605
10 0.005516509804426
11 0.0
12 0.26034042454740
13 0.10693435509042
14 0.004425431329639
15 -0.005314463273417
16 0.000889031943778
17 0.0
18 0.0
19 -0.000344367792530
20 -0.005757219008503
21 -0.008860603051348
22 0.003830359624365
23 0.24015222858433
24 0.0
25 0.026379568302756
26 0.035906303917309
27 0.0
28 0.032870590160388
29 0.064114591506146
30 0.0
31 0.085213133479955
32 0.061823218754168
33 -0.003127222607352
34 -0.000395757615348
35 0.003522980222700
36 0.0
37 0.0
38 0.001717314854458
39 0.036631497611772
40 -0.13374218431083
41 1.41958631662075
42 0.0
43 -0.005369561083291
44 -0.005624499032562
45 0.020124957458514
46 -0.004958280043688
47 0.027740615292810
48 0.0
49 0.005594886377343
50 -0.003779131684109
51 -0.009984724372210
52 0.049478294429124
53 -0.52073547288086
54 0.0
55 -0.006492881778868
56 0.003652516310251
57 -0.002620263133976
58 -0.010182009310332
59 -0.003143327966670
60 0.0
61 0.004438037130182
62 0.005300254963484
 Sym=     11.1
 Ene=       0.2051
 Spin= Alpha
 Occup=    0.000000
1 -0.007033489546570
2 -0.011712169197918
3 0.027455350986193
4 0.14556864593324
5 0.0
6 -0.010374623285367
7 -0.000319223571196
8 0.0
9 -0.011596859692289
10 0.001457181519409
11 0.0
12 -0.056700247086580
13 -0.021277503198909
14 -0.000425467355877
15 0.000903651452447
16 -0.000478184096570
17 0.0
18 0.0
19 -0.001006888774406
20 -0.000359579579904
21 -0.000723645806506
22 0.004551384493404
23 -0.011063801670708
24 0.0
25 0.11617668574586
26 -0.025800826515691
27 0.0
28 0.12529681166622
29 -0.030782499166519
30 0.0
31 0.47739088418772
32 -0.096526189886084
33 0.000392366289067
34 0.001454636684723
35 -0.001847002973789
36 0.0
37 0.0
38 0.004152552599761
39 -0.010969132576492
40 -0.007314824494000
41 -0.24321562399151
42 0.0
43 -0.000736288299818
44 0.002448368566075
45 -0.004836173544616
46 0.021872085111356
47 -0.028055493665207
48 0.0
49 -0.000827677882929
50 -0.001799066875168
51 -0.024461526767385
52 0.11477546812826
53 -1.52158732564954
54 0.0
55 -0.010293057924185
56 -0.007435169257823
57 0.024075679659055
58 -0.11902935158459
59 1.55712071622495
60 0.0
61 -0.007976049898378
62 0.009370623953610
 Sym=     12.1
 Ene=       0.3271
 Spin= Alpha
 Occup=    0.000000
1 0.019507822167875
2 0.032749814159399
3 -0.082797611477899
4 -0.40996467596243
5 0.0
6 -0.038062739896871
7 -0.10356967372988
8 0.0
9 -0.033480788562349
10 -0.11297217060001
11 0.0
12 -0.19164766678590
13 -0.39697710107392
14 0.001228839656448
15 0.002098064672001
16 -0.003326904328450
17 0.0
18 0.0
19 0.001978759221249
20 0.011287265142650
21 0.020008596489459
22 -0.079418024205303
23 0.013431322203321
24 0.0
25 0.021019514600000
26 0.079907219509820
27 0.0
28 0.025869960195108
29 0.097639341075226
30 0.0
31 0.084158482417751
32 0.35224508343460
33 -0.006318939195427
34 -0.004875684391153
35 0.011194623586580
36 0.0
37 0.0
38 -0.001822271125382
39 -0.006438876383332