[Molden Format]
[Molpro variables]
_NUMVAR=  1076.000000000000    
_AVOGAD= 0.6022140760000000E+24
_BOLTZ= 0.1380649000000000E-22
_CLIGHTSI=  299792458.0000000    
_JOULE= 0.4359744722207100E-17
_JPCAL=  4.184000000000000    
_PLANCK= 0.6626070150000000E-33
_BOHR= 0.5291772109030000E-10
_ECHARG= 0.1602176634000000E-18
_ENULL= 0.8854187812800001E-11
_MU= 0.1660539066600000E-26
_EMASS= 0.9109383701500001E-30
_AMU2AU=  1822.888486217313    
_CLIGHT=  29979245800.00000    
_EV= 0.3674932217565494E-01
_KJOULE= 0.3808798847133432E-03
_KJOULE/MOL= 0.3808798847133432E-03
_CM= 0.4556335252912009E-05
_CM-1= 0.4556335252912009E-05
_DEB2SI= 0.3335640951981520E-29
_KCAL= 0.1593601437640628E-02
_KCAL/MOL= 0.1593601437640628E-02
_KELVIN= 0.3166811563455608E-05
_HERTZ= 0.1519829846057038E-15
_HZ= 0.1519829846057038E-15
_TOA= 0.5291772109030000    
_TOANG= 0.5291772109030000    
_TORAD= 0.1745329251994330E-01
_TOCM=  219474.6313631965    
_TODEBYE=  2.541746473194078    
_TOE= 0.4803204712570263E-09
_TOEV=  27.21138624598803    
_TOHERTZ=  6579683920501656.    
_TOHZ=  6579683920501656.    
_TOK=  315775.0248040668    
_TOKCAL=  627.5094740630558    
_TOKELVIN=  315775.0248040668    
_TOKJ=  2625.499639479825    
_TOKJOULE=  2625.499639479825    
_TOKG= 0.1660539066600000E-26
_ANG=  1.889726124625770    
_ANGSTROM=  1.889726124625770    
_RPAREF=  0.000000000000000    
_RPADISS=  0.000000000000000    
_IGNORE_UNDEF=  2.000000000000000    
_STRICTCHECK=  0.000000000000000    
!SEWARD=  0.000000000000000    
!MULTI=  0.000000000000000    
!DFMULTI=  0.000000000000000    
!NUMHESS=  0.000000000000000    
_SEW_ONEEL=  0.000000000000000    
_CPPDONE=FALSE
_DKROLL_DONE=  0.000000000000000    
_FNUC_DONE=  0.000000000000000    
_FOCKDONE=TRUE
_GRADONE=FALSE
_HESSDONE=TRUE
_INTDONE=TRUE
_SCFDONE=TRUE
_MODUL_BLOCK=FALSE
_MODUL_SLATER=TRUE
_MODUL_MRCC=FALSE
_MODUL_NBO6=FALSE
_MODUL_NECI=FALSE
_MODUL_AIMS=TRUE
_MODUL_HDF5=FALSE
_MODUL_GECCO=FALSE
_ISWINDOWS=FALSE
_MRCC_EXEC=
_FITC_AO_SAVED=FALSE
_FITC_MO_SAVED=FALSE
_LSTYP=SEWARD
_INTYP=INTS
_GEOMTYP=XYZ
_GRADTYP=ALASKA
_DIRECT=FALSE
_DKHO= -1.000000000000000    
_FNUC=  0.000000000000000    
_SYNCM=  0.000000000000000    
_BASIS=6-311G(D,P)
_ZCENTRE=MASS
_ZORIENT=  1.000000000000000    
_NELEC=  20.00000000000000    
!SPIN=  0.000000000000000    
_OPTCONV= 0.2372354310957319E-02
_QSDSTEP=  0.000000000000000    
_QSDIRC=  0.000000000000000    
_PROGRAM=FREQ
_CPUSTEP= 0.8700000000000001    
_SYSSTEP= 0.2999999999999992E-01
_WALLSTEP= 0.9200000000000000    
!DFSCF=  0.000000000000000    
!SCSGRD=  0.000000000000000    
_NCEN=  6.000000000000000    
_CPUTOT=  3.410000000000000    
_DFTEXFAC=  1.000000000000000    
_DMX=  0.000000000000000    
_DMY= 0.5278192587394227E-01
_DMZ=  1.136369305081240    
_DMX_SCF=  0.000000000000000    
_DMY_SCF= 0.5278192587394227E-01
_DMZ_SCF=  1.136369305081240    
_FREQUENCIES= 0.3106383215251874E-04
_HOMO=  2.200000000000000    
_EHOMO=-0.4717532312708659    
_LUMO=  9.100000000000000    
_ELUMO= 0.1345167454927432    
_ENERGY= -152.1029070891959    
_ENERGY_METHOD=HF
_ENERGY_BASIS=6-311G(D,P)
_GEOMETRY_METHOD=HF
_GEOMETRY_BASIS=6-311G(D,P)
_ENUC=  36.53506113474667    
_GRADENERG= -152.1029067819453    
_GRADEXFAC=  9999.000000000000    
_GRADMETHOD=  1.000000000000000    
_NMRMETHOD=  0.000000000000000    
_NMRMAGNET=  0.000000000000000    
_VIRIAL= 0.8763906677178280E-04
!GRID_FREEZE= -1.000000000000000    
!NEESE_INDEX=  0.000000000000000    
_ITERATIONS=  10.00000000000000    
_LASTNELEC=  20.00000000000000    
_LASTSPIN=  0.000000000000000    
_LASTSYM=  1.000000000000000    
_MPP_PROG=  1.000000000000000    
_MSNSTATES=  0.000000000000000    
_RS2PHASE=  0.000000000000000    
_NPROC_MPP=  6.000000000000000    
_NPROC_SMP=  6.000000000000000    
_NUMSTEP=  0.000000000000000    
_OPTCONVMX= 0.1364300736406759E-02
_OPTCONVRMS= 0.8387539103275300E-03
_OPTGRAD= 0.2156426141534554E-03
_OPTGRADMX= 0.1513169901169510E-03
_OPTGRADRMS= 0.7624117739035126E-04
!GMAXLAST= 0.1513169901169510E-03
!DMAXLAST= 0.1364300736406759E-02
!DELAST= 0.1108765872004369E-05
_OPTSTEP=  6.000000000000000    
_ORBITAL=  2100.200000000000    
_PI=  3.141592653589793    
_SEIG_MIN= 0.1381976503646827E-01
_SEWPROP=TRUE
_STATUS=  1.000000000000000    
_SYSTOT= 0.6100000000000000    
_VERSION=  2024001.000000000    
_WALLTOT=  4.040000000000000    
_ZPE= 0.4950350197050770E-01
_DATE=26-Aug-24
_LASTORB=0
_OUTPUT=/home/lme/Bachelor_Thesis_Lukas_Meinschad/nice_calculations/water_dimer/non_planar_cs/water_dimer_nonplanar_open_cs.out
_PGROUP=Cs
_TIME=11:39:05
_LIBMOL=/usr/local/molpro/molpro_2024.1.0_sockets/lib/
_VIGRDC=  0.000000000000000    
!VIBCNT=  0.000000000000000    
!SURFREC=  0.000000000000000    
!XSURFREC=  0.000000000000000    
!XPOLYREC=  0.000000000000000    
!ROTREC=  0.000000000000000    
!POLYREC=  0.000000000000000    
!DIPREC=  0.000000000000000    
!DIP4DREC=  0.000000000000000    
!DIPROT=  0.000000000000000    
!DIP4DROT=  0.000000000000000    
!PTREC=  0.000000000000000    
!PT4DREC=  0.000000000000000    
!VSCFREC=  0.000000000000000    
!VCIREC=  0.000000000000000    
!PVCIREC=  0.000000000000000    
!VMP2REC=  0.000000000000000    
!VMCSCFREC=  0.000000000000000    
!VMRCIREC=  0.000000000000000    
!VIBSTATEREC=  0.000000000000000    
!VIBSTATECNT=  0.000000000000000    
!VIBINFO=  0.000000000000000    
!GAREC=  0.000000000000000    
!SCFORB=  21002.00000000000    
!DEFCORE=  2.000000000000000    
!SCORE=  0.000000000000000    
!NEWMOL=  0.000000000000000    
!NEWSYM=  0.000000000000000    
_SLFILES=slscratch
_NGSSTO=  9.000000000000000    
_SIN=SIN
_COS=COS
_TAN=TAN
_ACOS=ACOS
_ASIN=ASIN
_ATAN=ATAN
_COSH=COSH
_SINH=SINH
_TANH=TANH
_ABS=ABS
_MOD=MOD
_ERF=ERF
_REFC=REFC
_ERFC=ERFC
_HYPOT=HYPOT
_J0=J0
_J1=J1
_JN=JN
_GAMMA=GAMMA
_LGAMMA=LGAMMA
_Y0=Y0
_Y1=Y1
_YN=YN
_EXP=EXP
_LOG=LOG
_LOG10=LOG10
_SQRT=SQRT
_INT=INT
_NINT=NINT
_MAX=MAX
_MIN=MIN
_COSMO=  0.000000000000000    
_COSMOIT=  0.000000000000000    
_COSMOES=  0.000000000000000    
_COSMOEDS=  0.000000000000000    
_COSMOEC=  0.000000000000000    
_COSMOEDCORR=  0.000000000000000    
_FEPSI=  1.000000000000000    
_SL_IsMM=  0.000000000000000    
_SL_NSYM=  2.000000000000000    
_SL_System_BitSw=  0.000000000000000    
_SL_Unique_atoms=  0.000000000000000    
_SL_GRAD=  0.000000000000000    
_SL_MAXUPD_Hess=  5.000000000000000    
_SL_N_PRINT_COD=  5.000000000000000    
_SL_PRINT_CODES=  0.000000000000000    
_SL_BasType=  0.000000000000000    
_SL_Energy_Pred=  0.000000000000000    
_SL_New_Coords=  0.000000000000000    
_SL_Total_Nuclea=  0.000000000000000    
_SL_Highest_Mltp=  0.000000000000000    
_SL_Ref_Geom=  0.000000000000000    
_SL_Symmetry_ope=  1.000000000000000    
_SL_agrad=  0.000000000000000    
_SL_GrdMax=  0.000000000000000    
_SL_GrdNorm=  0.000000000000000    
_SL_GrdRMS=  0.000000000000000    
_SL_Hss_Q=  0.000000000000000    
_SL_Hss_X=  0.000000000000000    
_SL_BMxOld=  0.000000000000000    
_SL_KtB=  0.000000000000000    
_SL_TROld=  0.000000000000000    
_SL_No_of_Intern=  0.000000000000000    
_SL_Hess=  0.000000000000000    
_SL_K=  0.000000000000000    
!LATTICE= -1.000000000000000    
!NEWLATTICE=  0.000000000000000    
!LATGRAD_VAR=FALSE
!SEW_LATTICE=  1.000000000000000    
!AIC_ONEEL=  0.000000000000000    
!LOCAL=  0.000000000000000    
!SAVEDOM= -1.000000000000000    
!RESTDOM= -1.000000000000000    
!SAVEDOM_HF= -1.000000000000000    
!RESTDOM_HF= -1.000000000000000    
!HESSREC=  5300.200000000000    
!FREQREC=  5400.200000000000    
!NMODREC=  5450.200000000000    
!GTASKS=  0.000000000000000    
!HTASKS=  0.000000000000000    
!SAVEDOM_EOM= -1.000000000000000    
!RESTDOM_EOM= -1.000000000000000    
!GRADSTATE= -1.000000000000000    
!DEBUG=  0.000000000000000    
!CFIT_CPHF=  0.000000000000000    
!RDOMAUX_CPHF=  0.000000000000000    
!THRAO_CPHF= 0.1000000000000000E-11
!THRMO_CPHF= 0.1000000000000000E-11
!THROV_CPHF= 0.1000000000000000E-13
!THRSW_CPHF= 0.1000000000000000E-11
!THRPROD_CPHF= 0.1000000000000000E-11
!THRAOPR_CPHF= 0.1000000000000000E-11
!CFIT_SCFGRD=  0.000000000000000    
!RDOMAUX_SCFGRD=  0.000000000000000    
!THRAO_SCFGRD= 0.1000000000000000E-11
!THRMO_SCFGRD= 0.1000000000000000E-11
!THROV_SCFGRD= 0.1000000000000000E-13
!THRSW_SCFGRD= 0.1000000000000000E-11
!THRPROD_SCFGRD= 0.1000000000000000E-11
!THRAOPR_SCFGRD= 0.1000000000000000E-11
!LOCFIT_SCF=  0.000000000000000    
!LOCFIT_MP2=  0.000000000000000    
_RIDOM=  0.000000000000000    
!CC2_METHOD=  0.000000000000000    
_BASIS2006=FALSE
_SVDDEL= -1.000000000000000    
_SVDDELA= -1.000000000000000    
_SVDDELP= -1.000000000000000    
_SVDDELF= -1.000000000000000    
_SVDDELS= -1.000000000000000    
_SVDDEL_ABS= -1.000000000000000    
_SVDDELA_ABS= -1.000000000000000    
_SVDDELP_ABS= -1.000000000000000    
_SVDDELF_ABS= -1.000000000000000    
_SVDDELS_ABS= -1.000000000000000    
_MAXBASIS=  0.000000000000000    
!OPT_CONICAL=  0.000000000000000    
!CLEARSP_JGRID=  0.000000000000000    
_GRDHYBR=  0.000000000000000    
_STATEGRAD=  1.000000000000000    
_4EXT_NDISKS=  1.000000000000000    
!EMBEDFLAG=  1.000000000000000    
!EMBED=FALSE
!EMBED_F12=FALSE
!EMBEDNUC=  0.000000000000000    
_EMBEDENERGY=  0.000000000000000    
!EMBED_DFC=FALSE
!NUM_VOIDS=  0.000000000000000    
_IBODY=  0.000000000000000    
_EMBE_CORR=  0.000000000000000    
!EMBED_PROJ=FALSE
!EMB_PROJ_ZMU=  1000000.000000000    
!CORRECTION_HF=  0.000000000000000    
!EMBED_AORB=  0.000000000000000    
!EMBED_NACORR=  0.000000000000000    
!EMBED_MP2=FALSE
!EMBED_TRUNC_PERTURBATION=FALSE
!EMBED_FROZEN=  0.000000000000000    
!EMBED_ACTIVE=  0.000000000000000    
_CHANGE_BASIS=FALSE
_RESTORE_BASIS=FALSE
_FIX_EMBED_GUESS=FALSE
_EMBED_SCF=FALSE
_NEOBAS=FALSE
_NEOOVE=FALSE
_PRINEO=FALSE
_HUZINAGA_T=FALSE
_HUZINAGA_F=FALSE
_HUZINAGA=FALSE
_HUZINAGA_CORRECT=FALSE
!FASTLATGRAD=  1.000000000000000    
!FASTVLAMBDA= -1.000000000000000    
!IFORCE= -1.000000000000000    
!USESYM= -1.000000000000000    
_SINDEX=  0.000000000000000    
_AVDOM_OSV=  0.000000000000000    
_AVDOM_PNO=  0.000000000000000    
_AVDOM_PNOCC=  0.000000000000000    
_AVDOM_TNO=  0.000000000000000    
_AVDOM_TNOIT=  0.000000000000000    
_AVDOM_PAO=  0.000000000000000    
_AVDOM_LMO=  0.000000000000000    
_CC2OSV_FLAG=  0.000000000000000    
_EOMCCSD_CONV=FALSE
_TMADC2_FLAG=FALSE
_PROPADC2_FLAG=FALSE
_LEN_VirQ=  0.000000000000000    
_GRDCC2LR_FLAG=FALSE
_GRDADC2_FLAG=FALSE
_RO_VGLOBAL=  0.000000000000000    
_OPT=FALSE
_FREQ=FALSE
_HESS=FALSE
_CMRCC_callName=EMPTY
_CMRCC_callCount=  0.000000000000000    
_GECCO_CIROOT=  1.000000000000000    
_SYM_CATION=  2.000000000000000    
_MON_A=FALSE
_MON_B=FALSE
_MAXGEOM=  100.0000000000000    
!MAXGEOM=  100.0000000000000    
_NCORE=  0.000000000000000    
_NLARGECORE=  0.000000000000000    
GX1=  0.000000000000000    
GY1=-0.6471093245830639E-01
GZ1= -1.522413862753851    
GX2=  0.000000000000000    
GY2= 0.5938183483212957E-01
GZ2=  1.450702264333466    
GX3=  0.000000000000000    
GY3= 0.8046537107047566    
GZ3= -1.880861182567487    
GX4=  0.000000000000000    
GY4= 0.5028791060423551E-01
GZ4=-0.5842496845070271    
GX5=-0.7525324459145279    
GY5=-0.3851824982431588    
GZ5=  1.801612840671534    
GX6= 0.7525324459145279    
GY6=-0.3851824982431588    
GZ6=  1.801612840671534    
OX1=  0.000000000000000    
OY1=-0.1222859396153553    
OZ1= -2.876945248938384    
OX2=  0.000000000000000    
OY2= 0.1122154046104878    
OZ2=  2.741429967964710    
HX3=  0.000000000000000    
HY3=  1.520575138395845    
HZ3= -3.554312513492301    
HX4=  0.000000000000000    
HY4= 0.9503037842166916E-01
HZ4= -1.104071892117293    
HX5= -1.422080222673213    
HY5=-0.7278894296787171    
HZ5=  3.404554851478244    
HX6=  1.422080222673213    
HY6=-0.7278894296787171    
HZ6=  3.404554851478244    
[Atoms] Angs
O     1    8         0.0000000000       -0.0647109325       -1.5224138628
O     2    8         0.0000000000        0.0593818348        1.4507022643
H     3    1         0.0000000000        0.8046537107       -1.8808611826
H     4    1         0.0000000000        0.0502879106       -0.5842496845
H     5    1        -0.7525324459       -0.3851824982        1.8016128407
H     6    1         0.7525324459       -0.3851824982        1.8016128407
[GTO]
   1 0
 s    6  1.00
  0.8588500000D+04  0.1895150083D-02
  0.1297230000D+04  0.1438590063D-01
  0.2992960000D+03  0.7073200310D-01
  0.8737710000D+02  0.2400010105D+00
  0.2567890000D+02  0.5947970261D+00
  0.3740040000D+01  0.2808020123D+00
 s    3  1.00
  0.4211750000D+02  0.1138890124D+00
  0.9628370000D+01  0.9208111006D+00
  0.2853320000D+01 -0.3274470358D-02
 s    1  1.00
  0.9056610000D+00  0.1000000000D+01
 s    1  1.00
  0.2556110000D+00  0.1000000000D+01
 p    3  1.00
  0.4211750000D+02  0.3651139738D-01
  0.9628370000D+01  0.2371529830D+00
  0.2853320000D+01  0.8197019412D+00
 p    1  1.00
  0.9056610000D+00  0.1000000000D+01
 p    1  1.00
  0.2556110000D+00  0.1000000000D+01
 d    1  1.00
  0.1292000000D+01  0.1000000000D+01
  
   2 0
 s    6  1.00
  0.8588500000D+04  0.1895150083D-02
  0.1297230000D+04  0.1438590063D-01
  0.2992960000D+03  0.7073200310D-01
  0.8737710000D+02  0.2400010105D+00
  0.2567890000D+02  0.5947970261D+00
  0.3740040000D+01  0.2808020123D+00
 s    3  1.00
  0.4211750000D+02  0.1138890124D+00
  0.9628370000D+01  0.9208111006D+00
  0.2853320000D+01 -0.3274470358D-02
 s    1  1.00
  0.9056610000D+00  0.1000000000D+01
 s    1  1.00
  0.2556110000D+00  0.1000000000D+01
 p    3  1.00
  0.4211750000D+02  0.3651139738D-01
  0.9628370000D+01  0.2371529830D+00
  0.2853320000D+01  0.8197019412D+00
 p    1  1.00
  0.9056610000D+00  0.1000000000D+01
 p    1  1.00
  0.2556110000D+00  0.1000000000D+01
 d    1  1.00
  0.1292000000D+01  0.1000000000D+01
  
   3 0
 s    3  1.00
  0.3386500000D+02  0.2549381454D-01
  0.5094790000D+01  0.1903731086D+00
  0.1158790000D+01  0.8521614860D+00
 s    1  1.00
  0.3258400000D+00  0.1000000000D+01
 s    1  1.00
  0.1027410000D+00  0.1000000000D+01
 p    1  1.00
  0.7500000000D+00  0.1000000000D+01
  
   4 0
 s    3  1.00
  0.3386500000D+02  0.2549381454D-01
  0.5094790000D+01  0.1903731086D+00
  0.1158790000D+01  0.8521614860D+00
 s    1  1.00
  0.3258400000D+00  0.1000000000D+01
 s    1  1.00
  0.1027410000D+00  0.1000000000D+01
 p    1  1.00
  0.7500000000D+00  0.1000000000D+01
  
   5 0
 s    3  1.00
  0.3386500000D+02  0.2549381454D-01
  0.5094790000D+01  0.1903731086D+00
  0.1158790000D+01  0.8521614860D+00
 s    1  1.00
  0.3258400000D+00  0.1000000000D+01
 s    1  1.00
  0.1027410000D+00  0.1000000000D+01
 p    1  1.00
  0.7500000000D+00  0.1000000000D+01
  
   6 0
 s    3  1.00
  0.3386500000D+02  0.2549381454D-01
  0.5094790000D+01  0.1903731086D+00
  0.1158790000D+01  0.8521614860D+00
 s    1  1.00
  0.3258400000D+00  0.1000000000D+01
 s    1  1.00
  0.1027410000D+00  0.1000000000D+01
 p    1  1.00
  0.7500000000D+00  0.1000000000D+01


[MO]
 Sym=      1.1
 Ene=     -20.5717
 Spin= Alpha
 Occup=    2.000000
1 -0.000021083573517
2 -0.000025188336968
3 0.000062736857645
4 -0.000243795665659
5 0.0
6 0.000004551735727
7 -0.000010455325596
8 0.0
9 -0.000019607858780
10 0.000038465165088
11 0.0
12 -0.000017231626222
13 -0.000137625794608
14 0.000008184601409
15 -0.000006313413693
16 -0.000001871187716
17 0.0
18 0.0
19 0.000004446388505
20 0.55142898639687
21 0.47167053613897
22 0.005609355072581
23 -0.000556198756494
24 0.0
25 -0.001373051321884
26 0.001005085701397
27 0.0
28 0.000480969495249
29 -0.000395395155474
30 0.0
31 -0.000057222252464
32 0.000151614460102
33 -0.000095307783001
34 0.000038202718508
35 0.000057105064493
36 0.0
37 0.0
38 0.000072644695458
39 0.000000991169090
40 0.000065542597750
41 -0.000084473133046
42 0.0
43 -0.000017829230786
44 0.000016921595987
45 -0.000031429251464
46 0.000164740192831
47 0.000200021669228
48 0.0
49 -0.000001741748288
50 0.000028980241137
51 0.000194798728639
52 0.000136355222935
53 0.000053080638945
54 0.000072804088328
55 0.000006290260955
56 -0.000027469616682
57 0.000194798728639
58 0.000136355222935
59 0.000053080638945
60 -0.000072804088328
61 0.000006290260955
62 -0.000027469616682
 Sym=      2.1
 Ene=     -20.5094
 Spin= Alpha
 Occup=    2.000000
1 0.55142507598843
2 0.47167137501763
3 0.005618092959285
4 -0.000568188727604
5 0.0
6 0.001511299677939
7 0.000805244677172
8 0.0
9 -0.000529269451014
10 -0.000248478058377
11 0.0
12 0.000075317448989
13 -0.000028164259122
14 0.000109004985968
15 -0.000048314642632
16 -0.000060690343336
17 0.0
18 0.0
19 0.000047829872888
20 0.000021671729962
21 0.000016678437326
22 0.000017457750618
23 -0.000058806268493
24 0.0
25 -0.000003153273363
26 0.000009605790616
27 0.0
28 0.000011863889521
29 -0.000028001324039
30 0.0
31 -0.000009706508405
32 0.000082242252106
33 -0.000001539319125
34 0.000002713872870
35 -0.000001174553745
36 0.0
37 0.0
38 -0.000000836455785
39 0.000206731318211
40 0.000115138502899
41 0.000042047960622
42 0.0
43 -0.000052285755089
44 0.000060055136488
45 0.000196702584611
46 0.000112334317460
47 0.000231707498884
48 0.0
49 0.000023454873643
50 -0.000060394322812
51 -0.000002944979574
52 0.000019689734130
53 -0.000033364587194
54 0.000000555373272
55 0.000001329266396
56 -0.000010090539515
57 -0.000002944979574
58 0.000019689734130
59 -0.000033364587194
60 -0.000000555373272
61 0.000001329266396
62 -0.000010090539515
 Sym=      3.1
 Ene=      -1.3778
 Spin= Alpha
 Occup=    2.000000
1 -0.006842943173937
2 -0.011376958376217
3 0.031591973301336
4 0.023796217637169
5 0.0
6 0.001794706017311
7 0.002407690897866
8 0.0
9 0.003265096314862
10 0.002968437421967
11 0.0
12 0.001057929478649
13 0.003332451236092
14 -0.000634021841944
15 0.000143253755222
16 0.000490768086722
17 0.0
18 0.0
19 -0.000039113879929
20 -0.11339145611410
21 -0.18942412863203
22 0.53788251277587
23 0.37642075407460
24 0.0
25 -0.029387203740635
26 0.021908082535614
27 0.0
28 -0.049146733402758
29 0.036622816756714
30 0.0
31 -0.016563289391105
32 0.007779777790729
33 0.005657406401580
34 -0.001830714470174
35 -0.003826691931406
36 0.0
37 0.0
38 -0.006059266862052
39 0.005472384461143
40 0.003179070388016
41 0.001663024459723
42 0.0
43 -0.001203899807652
44 0.000512836447503
45 0.008857054317266
46 0.006688096067442
47 -0.001505244101635
48 0.0
49 -0.000056254256683
50 -0.001744049372796
51 0.095518376825716
52 0.078226771059473
53 -0.002826381411713
54 0.023647306251116
55 0.011267386171847
56 -0.008412035527077
57 0.095518376825716
58 0.078226771059473
59 -0.002826381411713
60 -0.023647306251116
61 0.011267386171847
62 -0.008412035527077
 Sym=      4.1
 Ene=      -1.3185
 Spin= Alpha
 Occup=    2.000000
1 -0.11315278823613
2 -0.18895465886930
3 0.53519171604495
4 0.37949657271794
5 0.0
6 0.032610038397311
7 0.018602887317420
8 0.0
9 0.054558846108697
10 0.030538511983512
11 0.0
12 0.017295654975745
13 0.012670656538710
14 -0.008333364146241
15 0.003568791309958
16 0.004764572836284
17 0.0
18 0.0
19 -0.001568743468680
20 0.007689728073974
21 0.012883836392762
22 -0.037063770483105
23 -0.023850662020302
24 0.0
25 0.002313994329530
26 -0.003881385022842
27 0.0
28 0.003511227892892
29 -0.004644233633401
30 0.0
31 0.001374069654559
32 -0.005808478525363
33 -0.000380524311983
34 0.000100077186391
35 0.000280447125592
36 0.0
37 0.0
38 0.000546639723673
39 0.097068628820799
40 0.080952788995251
41 0.000591944094037
42 0.0
43 -0.024183051781909
44 0.012852040234414
45 0.093949797306444
46 0.075026795028492
47 -0.008460089641231
48 0.0
49 -0.000645057858831
50 -0.027907208889563
51 -0.007042349966265
52 -0.007121263290137
53 0.002126467892426
54 -0.001846599722480
55 -0.000853832860656
56 0.000747715990394
57 -0.007042349966265
58 -0.007121263290137
59 0.002126467892426
60 0.001846599722480
61 -0.000853832860656
62 0.000747715990394
 Sym=      1.2
 Ene=      -0.7460
 Spin= Alpha
 Occup=    2.000000
1 0.0
2 0.0
3 0.0
4 0.0
5 0.001710877221980
6 0.0
7 0.0
8 0.002120893580412
9 0.0
10 0.0
11 0.003262121659586
12 0.0
13 0.0
14 0.0
15 0.0
16 0.0
17 0.000092397999109
18 0.000097988154803
19 0.0
20 0.0
21 0.0
22 0.0
23 0.0
24 0.22886965842051
25 0.0
26 0.0
27 0.35161654086116
28 0.0
29 0.0
30 0.21827333144565
31 0.0
32 0.0
33 0.0
34 0.0
35 0.0
36 -0.023062984891049
37 0.017331730070838
38 0.0
39 0.0
40 0.0
41 0.0
42 0.000037713266685
43 0.0
44 0.0
45 0.0
46 0.0
47 0.0
48 0.001132574230467
49 0.0
50 0.0
51 -0.15069499971423
52 -0.20560788312707
53 -0.049039466230698
54 -0.018900488643291
55 -0.019729690481473
56 0.015849765081590
57 0.15069499971423
58 0.20560788312707
59 0.049039466230698
60 -0.018900488643291
61 0.019729690481473
62 -0.015849765081590
 Sym=      5.1
 Ene=      -0.6920
 Spin= Alpha
 Occup=    2.000000
1 0.000443007290178
2 0.000744194632203
3 -0.001995253586686
4 0.000228436588107
5 0.0
6 -0.10721549024790
7 0.19311950336741
8 0.0
9 -0.16465210839693
10 0.29573720977436
11 0.0
12 -0.098869108184866
13 0.18506025787862
14 0.000013169301025
15 -0.020867932851442
16 0.020854763550417
17 0.0
18 0.0
19 0.014137109811175
20 -0.003424216021290
21 -0.005856266396905
22 0.017945125927135
23 0.039694715696126
24 0.0
25 0.016465946507856
26 -0.051530608186521
27 0.0
28 0.024808018712381
29 -0.079345283519563
30 0.0
31 0.014241828686309
32 -0.066028174841839
33 -0.000200299933279
34 -0.000047373477414
35 0.000247673410693
36 0.0
37 0.0
38 0.003411719861416
39 -0.14585839525787
40 -0.20477861274865
41 -0.057646301277221
42 0.0
43 0.030403659946318
44 -0.002193277236964
45 0.14730431879607
46 0.19644215390786
47 0.061392468054333
48 0.0
49 -0.011951657094435
50 -0.029765091271974
51 -0.017615892837776
52 -0.027662783026149
53 -0.004441693460475
54 -0.005916796066970
55 -0.000919775064327
56 -0.003172566383856
57 -0.017615892837776
58 -0.027662783026149
59 -0.004441693460475
60 0.005916796066970
61 -0.000919775064327
62 -0.003172566383856
 Sym=      6.1
 Ene=      -0.6037
 Spin= Alpha
 Occup=    2.000000
1 0.010467884849993
2 0.017633531702637
3 -0.050023761820629
4 -0.10040010390439
5 0.0
6 0.063832066654920
7 -0.019747240221812
8 0.0
9 0.093687220167887
10 -0.031650558328846
11 0.0
12 0.079994540696475
13 -0.021523009205707
14 -0.002230415353244
15 0.006536109996256
16 -0.004305694643012
17 0.0
18 0.0
19 -0.001112177588171
20 -0.035246825570645
21 -0.059924088326877
22 0.18109994340419
23 0.30606819711416
24 0.0
25 0.19174344788110
26 -0.15355722054815
27 0.0
28 0.28464738131049
29 -0.23110641080183
30 0.0
31 0.25860993148811
32 -0.20410196344388
33 0.002964323608804
34 -0.005699236908180
35 0.002734913299376
36 0.0
37 0.0
38 0.015237766899624
39 0.046090464162796
40 0.067694213843199
41 0.011364973240193
42 0.0
43 -0.007536582894056
44 0.005309453492520
45 -0.008739222304033
46 -0.005974827991310
47 0.039401855373740
48 0.0
49 0.007279709625424
50 0.003731372829520
51 -0.084391367916493
52 -0.12841233363143
53 -0.032553050988564
54 -0.027208826105771
55 0.006568098774377
56 -0.005413165157677
57 -0.084391367916493
58 -0.12841233363143
59 -0.032553050988564
60 0.027208826105771
61 0.006568098774377
62 -0.005413165157677
 Sym=      7.1
 Ene=      -0.5476
 Spin= Alpha
 Occup=    2.000000
1 0.033221896455830
2 0.056513086069481
3 -0.17118280024521
4 -0.28382547399179
5 0.0
6 0.19438543632925
7 0.10353124720424
8 0.0
9 0.28823952231646
10 0.15149894287500
11 0.0
12 0.25856000021861
13 0.14958508383228
14 -0.011012377078404
15 0.010799093817893
16 0.000213283260511
17 0.0
18 0.0
19 0.008157147474496
20 0.009178378615829
21 0.015671937290414
22 -0.048670581104711
23 -0.073039654974081
24 0.0
25 -0.12266909020265
26 -0.071603973398970
27 0.0
28 -0.18435003653605
29 -0.10786644564626
30 0.0
31 -0.18162644965856
32 -0.12298402552917
33 -0.001385863197738
34 0.007014341596113
35 -0.005628478398375
36 0.0
37 0.0
38 -0.001092229364439
39 0.081859560577126
40 0.13762220759293
41 0.028016554346620
42 0.0
43 -0.007071124235572
44 0.025178645941069
45 0.070333352569360
46 0.10530122782018
47 0.014719169813043
48 0.0
49 0.018233141447450
50 -0.016620320431984
51 0.016174378728502
52 0.029955783712717
53 0.005086153046446
54 0.006063841688457
55 -0.010509225392373
56 -0.009126377355192
57 0.016174378728502
58 0.029955783712717
59 0.005086153046446
60 -0.006063841688457
61 -0.010509225392373
62 -0.009126377355192
 Sym=      8.1
 Ene=      -0.5240
 Spin= Alpha
 Occup=    2.000000
1 0.013738592247435
2 0.023413957474852
3 -0.072280544785932
4 -0.11925576409110
5 0.0
6 0.089130891860027
7 0.092988139883833
8 0.0
9 0.13140656403772
10 0.13932783849865
11 0.0
12 0.12676024785306
13 0.12233143459315
14 -0.005981604143965
15 0.002828243691619
16 0.003153360452347
17 0.0
18 0.0
19 0.006809325708110
20 0.002765471921418
21 0.004667484265535
22 -0.012148449997393
23 -0.036800381059932
24 0.0
25 0.14644627069098
26 0.21172160633055
27 0.0
28 0.21994930539984
29 0.31862622698896
30 0.0
31 0.24143342030132
32 0.33005751600286
33 -0.000080547589924
34 -0.011652947524040
35 0.011733495113964
36 0.0
37 0.0
38 -0.004895265121043
39 0.022685009015464
40 0.036758996369748
41 0.017454307207047
42 0.0
43 0.001350059622634
44 0.015331051787900
45 0.052376270049665
46 0.092466017711871
47 -0.033273992261313
48 0.0
49 0.009825931486701
50 -0.016006179101444
51 0.006196062049151
52 0.014096036604615
53 0.009372102185283
54 0.003473161214088
55 0.016641398493628
56 0.021145624444331
57 0.006196062049151
58 0.014096036604615
59 0.009372102185283
60 -0.003473161214088
61 0.016641398493628
62 0.021145624444331
 Sym=      2.2
 Ene=      -0.4718
 Spin= Alpha
 Occup=    2.000000
1 0.0
2 0.0
3 0.0
4 0.0
5 0.29035836940763
6 0.0
7 0.0
8 0.43376765688115
9 0.0
10 0.0
11 0.47063655550511
12 0.0
13 0.0
14 0.0
15 0.0
16 0.0
17 0.014457552775437
18 0.008212760615654
19 0.0
20 0.0
21 0.0
22 0.0
23 0.0
24 -0.003006015213158
25 0.0
26 0.0
27 -0.004385237936913
28 0.0
29 0.0
30 0.006917114877415
31 0.0
32 0.0
33 0.0
34 0.0
35 0.0
36 -0.000308633395267
37 -0.000102074621529
38 0.0
39 0.0
40 0.0
41 0.0
42 0.031368213486671
43 0.0
44 0.0
45 0.0
46 0.0
47 0.0
48 0.029582773882127
49 0.0
50 0.0
51 0.001016829089604
52 0.016912907429849
53 -0.017771239320520
54 0.000785552702115
55 0.001500496209950
56 -0.000794443239685
57 -0.001016829089604
58 -0.016912907429849
59 0.017771239320520
60 0.000785552702115
61 -0.001500496209950
62 0.000794443239685
 Sym=      9.1
 Ene=       0.1345
 Spin= Alpha
 Occup=    0.000000
1 0.012182179086311
2 0.020478668456890
3 -0.054515756408465
4 -0.17622504130439
5 0.0
6 -0.019882534283631
7 -0.019698039646066
8 0.0
9 -0.025009778804485
10 -0.036720376137042
11 0.0
12 -0.055007401010010
13 0.011220026810773
14 -0.000280069977899
15 -0.001263012312745
16 0.001543082290644
17 0.0
18 0.0
19 -0.001681959644909
20 0.033985341616587
21 0.055875465736964
22 -0.11476668262160
23 -0.81659531211911
24 0.0
25 0.051764466494023
26 -0.034897570015389
27 0.0
28 0.081564945096195
29 -0.052290945238849
30 0.0
31 0.15003330244662
32 -0.11290876727491
33 -0.000908429888557
34 -0.000985312571260
35 0.001893742459816
36 0.0
37 0.0
38 0.004434875831603
39 0.014339714747415
40 -0.046150499410833
41 0.34904142292438
42 0.0
43 0.001761664587266
44 -0.007764727883838
45 0.010791830638334
46 -0.061025753503965
47 0.063746248609875
48 0.0
49 -0.000165017822680
50 0.009815322818054
51 0.034204212169709
52 -0.049893095301087
53 0.78781558297269
54 -0.004687833614332
55 0.002266297208628
56 -0.000091266574116
57 0.034204212169709
58 -0.049893095301087
59 0.78781558297269
60 0.004687833614332
61 0.002266297208628
62 -0.000091266574116
 Sym=     10.1
 Ene=       0.1952
 Spin= Alpha
 Occup=    0.000000
1 0.027946754841945
2 0.045555924495427
3 -0.084905825137976
4 -0.72573997824334
5 0.0
6 -0.078461524960246
7 0.023573213907050
8 0.0
9 -0.10798948129304
10 0.011872791332205
11 0.0
12 -0.25950095653814
13 0.11976818067041
14 0.004487961524528
15 -0.005237157198009
16 0.000749195673481
17 0.0
18 0.0
19 0.000673595882032
20 -0.006633745067709
21 -0.010324860858634
22 0.006707021747363
23 0.26756569614659
24 0.0
25 -0.022036898427717
26 0.034709158750762
27 0.0
28 -0.037610451237218
29 0.059764904599162
30 0.0
31 -0.057476376690462
32 0.066004050188751
33 -0.000878347931680
34 -0.000777893629713
35 0.001656241561394
36 0.0
37 0.0
38 -0.003414852340670
39 0.037604326329403
40 -0.12993318163992
41 1.43288066359401
42 0.0
43 0.004929083703034
44 -0.005811905621006
45 0.020193038790667
46 -0.000381224182394
47 0.038215711712004
48 0.0
49 -0.005909588455629
50 -0.003754348820221
51 -0.008630832103572
52 0.007186209992966
53 -0.27362555207823
54 0.003335889700095
55 -0.000983680736479
56 0.004551128674594
57 -0.008630832103572
58 0.007186209992966
59 -0.27362555207823
60 -0.003335889700095
61 -0.000983680736479
62 0.004551128674594
 Sym=      3.2
 Ene=       0.2057
 Spin= Alpha
 Occup=    0.000000
1 0.0
2 0.0
3 0.0
4 0.0
5 0.010726001585444
6 0.0
7 0.0
8 0.019627258895189
9 0.0
10 0.0
11 0.009618331664586
12 0.0
13 0.0
14 0.0
15 0.0
16 0.0
17 0.000588429853397
18 -0.001318438758711
19 0.0
20 0.0
21 0.0
22 0.0
23 0.0
24 0.12095482047213
25 0.0
26 0.0
27 0.13139428555464
28 0.0
29 0.0
30 0.49182461522292
31 0.0
32 0.0
33 0.0
34 0.0
35 0.0
36 -0.003833017349233
37 0.002627585183463
38 0.0
39 0.0
40 0.0
41 0.0
42 0.002940026198515
43 0.0
44 0.0
45 0.0
46 0.0
47 0.0
48 0.000008845845303
49 0.0
50 0.0
51 0.024918055212476
52 -0.11948959716493
53 1.56409601376353
54 -0.009413314242730
55 -0.006887889765633
56 0.005538003513690
57 -0.024918055212476
58 0.11948959716493
59 -1.56409601376353
60 -0.009413314242730
61 0.006887889765633
62 -0.005538003513690
 Sym=     11.1
 Ene=       0.3281
 Spin= Alpha
 Occup=    0.000000
1 0.019470653758036
2 0.032624467211099
3 -0.081092103727008
4 -0.42084387883913
5 0.0
6 0.032671397954321
7 -0.10544480692163
8 0.0
9 0.026236475047613
10 -0.11419934857763
11 0.0
12 0.18046739913544
13 -0.41469254089786
14 0.001414878926602
15 0.002141275568995
16 -0.003556154495597
17 0.0
18 0.0
19 -0.002090355445758
20 0.008722023074722
21 0.015559777118955
22 -0.058796588580971
23 -0.035132285671472
24 0.0
25 -0.017336901487264
26 0.088421659668278