[Molden Format]
[Molpro variables]
_NUMVAR=  1076.000000000000    
_AVOGAD= 0.6022140760000000E+24
_BOLTZ= 0.1380649000000000E-22
_CLIGHTSI=  299792458.0000000    
_JOULE= 0.4359744722207100E-17
_JPCAL=  4.184000000000000    
_PLANCK= 0.6626070150000000E-33
_BOHR= 0.5291772109030000E-10
_ECHARG= 0.1602176634000000E-18
_ENULL= 0.8854187812800001E-11
_MU= 0.1660539066600000E-26
_EMASS= 0.9109383701500001E-30
_AMU2AU=  1822.888486217313    
_CLIGHT=  29979245800.00000    
_EV= 0.3674932217565494E-01
_KJOULE= 0.3808798847133432E-03
_KJOULE/MOL= 0.3808798847133432E-03
_CM= 0.4556335252912009E-05
_CM-1= 0.4556335252912009E-05
_DEB2SI= 0.3335640951981520E-29
_KCAL= 0.1593601437640628E-02
_KCAL/MOL= 0.1593601437640628E-02
_KELVIN= 0.3166811563455608E-05
_HERTZ= 0.1519829846057038E-15
_HZ= 0.1519829846057038E-15
_TOA= 0.5291772109030000    
_TOANG= 0.5291772109030000    
_TORAD= 0.1745329251994330E-01
_TOCM=  219474.6313631965    
_TODEBYE=  2.541746473194078    
_TOE= 0.4803204712570263E-09
_TOEV=  27.21138624598803    
_TOHERTZ=  6579683920501656.    
_TOHZ=  6579683920501656.    
_TOK=  315775.0248040668    
_TOKCAL=  627.5094740630558    
_TOKELVIN=  315775.0248040668    
_TOKJ=  2625.499639479825    
_TOKJOULE=  2625.499639479825    
_TOKG= 0.1660539066600000E-26
_ANG=  1.889726124625770    
_ANGSTROM=  1.889726124625770    
_RPAREF=  0.000000000000000    
_RPADISS=  0.000000000000000    
_IGNORE_UNDEF=  2.000000000000000    
_STRICTCHECK=  0.000000000000000    
!SEWARD=  0.000000000000000    
!MULTI=  0.000000000000000    
!DFMULTI=  0.000000000000000    
!NUMHESS=  0.000000000000000    
_SEW_ONEEL=  0.000000000000000    
_CPPDONE=FALSE
_DKROLL_DONE=  0.000000000000000    
_FNUC_DONE=  0.000000000000000    
_FOCKDONE=TRUE
_GRADONE=FALSE
_HESSDONE=TRUE
_INTDONE=TRUE
_SCFDONE=TRUE
_MODUL_BLOCK=FALSE
_MODUL_SLATER=TRUE
_MODUL_MRCC=FALSE
_MODUL_NBO6=FALSE
_MODUL_NECI=FALSE
_MODUL_AIMS=TRUE
_MODUL_HDF5=FALSE
_MODUL_GECCO=FALSE
_ISWINDOWS=FALSE
_MRCC_EXEC=
_FITC_AO_SAVED=FALSE
_FITC_MO_SAVED=FALSE
_LSTYP=SEWARD
_INTYP=INTS
_GEOMTYP=XYZ
_GRADTYP=ALASKA
_DIRECT=FALSE
_DKHO= -1.000000000000000    
_FNUC=  0.000000000000000    
_SYNCM=  0.000000000000000    
_BASIS=6-311G(D,P)
_ZCENTRE=MASS
_ZORIENT=  1.000000000000000    
_NELEC=  20.00000000000000    
!SPIN=  0.000000000000000    
_OPTCONV= 0.4737717916848491E-03
_QSDSTEP=  0.000000000000000    
_QSDIRC=  0.000000000000000    
_PROGRAM=FREQ
_CPUSTEP= 0.5499999999999998    
_SYSSTEP= 0.6000000000000000E-01
_WALLSTEP= 0.6100000000000000    
!DFSCF=  0.000000000000000    
!SCSGRD=  0.000000000000000    
_NCEN=  6.000000000000000    
_CPUTOT=  2.400000000000000    
_DFTEXFAC=  1.000000000000000    
_DMX=  0.000000000000000    
_DMY=  0.000000000000000    
_DMZ= -1.814814771947157    
_DMX_SCF=  0.000000000000000    
_DMY_SCF=  0.000000000000000    
_DMZ_SCF= -1.814814771947157    
_FREQUENCIES= -205.5867588509853    
_HOMO=  2.300000000000000    
_EHOMO=-0.4721551005666352    
_LUMO=  7.100000000000000    
_ELUMO= 0.1312908682253603    
_ENERGY= -152.1009549553908    
_ENERGY_METHOD=HF
_ENERGY_BASIS=6-311G(D,P)
_GEOMETRY_METHOD=HF
_GEOMETRY_BASIS=6-311G(D,P)
_ENUC=  36.38659968406404    
_GRADENERG= -152.1009549385265    
_GRADEXFAC=  9999.000000000000    
_GRADMETHOD=  1.000000000000000    
_NMRMETHOD=  0.000000000000000    
_NMRMAGNET=  0.000000000000000    
_VIRIAL=-0.1025842936307456E-04
!GRID_FREEZE= -1.000000000000000    
!NEESE_INDEX=  0.000000000000000    
_ITERATIONS=  2.000000000000000    
_LASTNELEC=  20.00000000000000    
_LASTSPIN=  0.000000000000000    
_LASTSYM=  1.000000000000000    
_MPP_PROG=  1.000000000000000    
_MSNSTATES=  0.000000000000000    
_RS2PHASE=  0.000000000000000    
_NPROC_MPP=  6.000000000000000    
_NPROC_SMP=  6.000000000000000    
_NUMSTEP=  0.000000000000000    
_OPTCONVMX= 0.3120856797975501E-03
_OPTCONVRMS= 0.2118771864058385E-03
_OPTGRAD= 0.6645298488174423E-04
_OPTGRADMX= 0.4040040731305098E-04
_OPTGRADRMS= 0.2971867830066919E-04
!GMAXLAST= 0.4040040731305098E-04
!DMAXLAST= 0.3120856797975501E-03
!DELAST= 0.5222598247200949E-05
_OPTSTEP=  4.000000000000000    
_ORBITAL=  2100.200000000000    
_PI=  3.141592653589793    
_SEIG_MIN= 0.1644803320463066E-01
_SEWPROP=TRUE
_STATUS=  1.000000000000000    
_SYSTOT= 0.4400000000000000    
_VERSION=  2024001.000000000    
_WALLTOT=  2.850000000000000    
_ZPE= 0.4850725521707353E-01
_DATE=26-Aug-24
_LASTORB=0
_OUTPUT=/home/lme/Bachelor_Thesis_Lukas_Meinschad/nice_calculations/water_dimer/non_planar_bifurcated_c2v/water_dimer_nonplanar_bifurcated_c2v.out
_PGROUP=C2v
_TIME=11:46:46
_LIBMOL=/usr/local/molpro/molpro_2024.1.0_sockets/lib/
_VIGRDC=  0.000000000000000    
!VIBCNT=  0.000000000000000    
!SURFREC=  0.000000000000000    
!XSURFREC=  0.000000000000000    
!XPOLYREC=  0.000000000000000    
!ROTREC=  0.000000000000000    
!POLYREC=  0.000000000000000    
!DIPREC=  0.000000000000000    
!DIP4DREC=  0.000000000000000    
!DIPROT=  0.000000000000000    
!DIP4DROT=  0.000000000000000    
!PTREC=  0.000000000000000    
!PT4DREC=  0.000000000000000    
!VSCFREC=  0.000000000000000    
!VCIREC=  0.000000000000000    
!PVCIREC=  0.000000000000000    
!VMP2REC=  0.000000000000000    
!VMCSCFREC=  0.000000000000000    
!VMRCIREC=  0.000000000000000    
!VIBSTATEREC=  0.000000000000000    
!VIBSTATECNT=  0.000000000000000    
!VIBINFO=  0.000000000000000    
!GAREC=  0.000000000000000    
!SCFORB=  21002.00000000000    
!DEFCORE=  2.000000000000000    
!SCORE=  0.000000000000000    
!NEWMOL=  0.000000000000000    
!NEWSYM=  0.000000000000000    
_SLFILES=slscratch
_NGSSTO=  9.000000000000000    
_SIN=SIN
_COS=COS
_TAN=TAN
_ACOS=ACOS
_ASIN=ASIN
_ATAN=ATAN
_COSH=COSH
_SINH=SINH
_TANH=TANH
_ABS=ABS
_MOD=MOD
_ERF=ERF
_REFC=REFC
_ERFC=ERFC
_HYPOT=HYPOT
_J0=J0
_J1=J1
_JN=JN
_GAMMA=GAMMA
_LGAMMA=LGAMMA
_Y0=Y0
_Y1=Y1
_YN=YN
_EXP=EXP
_LOG=LOG
_LOG10=LOG10
_SQRT=SQRT
_INT=INT
_NINT=NINT
_MAX=MAX
_MIN=MIN
_COSMO=  0.000000000000000    
_COSMOIT=  0.000000000000000    
_COSMOES=  0.000000000000000    
_COSMOEDS=  0.000000000000000    
_COSMOEC=  0.000000000000000    
_COSMOEDCORR=  0.000000000000000    
_FEPSI=  1.000000000000000    
_SL_IsMM=  0.000000000000000    
_SL_NSYM=  4.000000000000000    
_SL_System_BitSw=  0.000000000000000    
_SL_Unique_atoms=  0.000000000000000    
_SL_GRAD=  0.000000000000000    
_SL_MAXUPD_Hess=  5.000000000000000    
_SL_N_PRINT_COD=  5.000000000000000    
_SL_PRINT_CODES=  0.000000000000000    
_SL_BasType=  0.000000000000000    
_SL_Energy_Pred=  0.000000000000000    
_SL_New_Coords=  0.000000000000000    
_SL_Total_Nuclea=  0.000000000000000    
_SL_Highest_Mltp=  0.000000000000000    
_SL_Ref_Geom=  0.000000000000000    
_SL_Symmetry_ope=  1.000000000000000    
_SL_agrad=  0.000000000000000    
_SL_GrdMax=  0.000000000000000    
_SL_GrdNorm=  0.000000000000000    
_SL_GrdRMS=  0.000000000000000    
_SL_Hss_Q=  0.000000000000000    
_SL_Hss_X=  0.000000000000000    
_SL_BMxOld=  0.000000000000000    
_SL_KtB=  0.000000000000000    
_SL_TROld=  0.000000000000000    
_SL_No_of_Intern=  0.000000000000000    
_SL_Hess=  0.000000000000000    
_SL_K=  0.000000000000000    
!LATTICE= -1.000000000000000    
!NEWLATTICE=  0.000000000000000    
!LATGRAD_VAR=FALSE
!SEW_LATTICE=  1.000000000000000    
!AIC_ONEEL=  0.000000000000000    
!LOCAL=  0.000000000000000    
!SAVEDOM= -1.000000000000000    
!RESTDOM= -1.000000000000000    
!SAVEDOM_HF= -1.000000000000000    
!RESTDOM_HF= -1.000000000000000    
!HESSREC=  5300.200000000000    
!FREQREC=  5400.200000000000    
!NMODREC=  5450.200000000000    
!GTASKS=  0.000000000000000    
!HTASKS=  0.000000000000000    
!SAVEDOM_EOM= -1.000000000000000    
!RESTDOM_EOM= -1.000000000000000    
!GRADSTATE= -1.000000000000000    
!DEBUG=  0.000000000000000    
!CFIT_CPHF=  0.000000000000000    
!RDOMAUX_CPHF=  0.000000000000000    
!THRAO_CPHF= 0.1000000000000000E-11
!THRMO_CPHF= 0.1000000000000000E-11
!THROV_CPHF= 0.1000000000000000E-13
!THRSW_CPHF= 0.1000000000000000E-11
!THRPROD_CPHF= 0.1000000000000000E-11
!THRAOPR_CPHF= 0.1000000000000000E-11
!CFIT_SCFGRD=  0.000000000000000    
!RDOMAUX_SCFGRD=  0.000000000000000    
!THRAO_SCFGRD= 0.1000000000000000E-11
!THRMO_SCFGRD= 0.1000000000000000E-11
!THROV_SCFGRD= 0.1000000000000000E-13
!THRSW_SCFGRD= 0.1000000000000000E-11
!THRPROD_SCFGRD= 0.1000000000000000E-11
!THRAOPR_SCFGRD= 0.1000000000000000E-11
!LOCFIT_SCF=  0.000000000000000    
!LOCFIT_MP2=  0.000000000000000    
_RIDOM=  0.000000000000000    
!CC2_METHOD=  0.000000000000000    
_BASIS2006=FALSE
_SVDDEL= -1.000000000000000    
_SVDDELA= -1.000000000000000    
_SVDDELP= -1.000000000000000    
_SVDDELF= -1.000000000000000    
_SVDDELS= -1.000000000000000    
_SVDDEL_ABS= -1.000000000000000    
_SVDDELA_ABS= -1.000000000000000    
_SVDDELP_ABS= -1.000000000000000    
_SVDDELF_ABS= -1.000000000000000    
_SVDDELS_ABS= -1.000000000000000    
_MAXBASIS=  0.000000000000000    
!OPT_CONICAL=  0.000000000000000    
!CLEARSP_JGRID=  0.000000000000000    
_GRDHYBR=  0.000000000000000    
_STATEGRAD=  1.000000000000000    
_4EXT_NDISKS=  1.000000000000000    
!EMBEDFLAG=  1.000000000000000    
!EMBED=FALSE
!EMBED_F12=FALSE
!EMBEDNUC=  0.000000000000000    
_EMBEDENERGY=  0.000000000000000    
!EMBED_DFC=FALSE
!NUM_VOIDS=  0.000000000000000    
_IBODY=  0.000000000000000    
_EMBE_CORR=  0.000000000000000    
!EMBED_PROJ=FALSE
!EMB_PROJ_ZMU=  1000000.000000000    
!CORRECTION_HF=  0.000000000000000    
!EMBED_AORB=  0.000000000000000    
!EMBED_NACORR=  0.000000000000000    
!EMBED_MP2=FALSE
!EMBED_TRUNC_PERTURBATION=FALSE
!EMBED_FROZEN=  0.000000000000000    
!EMBED_ACTIVE=  0.000000000000000    
_CHANGE_BASIS=FALSE
_RESTORE_BASIS=FALSE
_FIX_EMBED_GUESS=FALSE
_EMBED_SCF=FALSE
_NEOBAS=FALSE
_NEOOVE=FALSE
_PRINEO=FALSE
_HUZINAGA_T=FALSE
_HUZINAGA_F=FALSE
_HUZINAGA=FALSE
_HUZINAGA_CORRECT=FALSE
!FASTLATGRAD=  1.000000000000000    
!FASTVLAMBDA= -1.000000000000000    
!IFORCE= -1.000000000000000    
!USESYM= -1.000000000000000    
_SINDEX=  0.000000000000000    
_AVDOM_OSV=  0.000000000000000    
_AVDOM_PNO=  0.000000000000000    
_AVDOM_PNOCC=  0.000000000000000    
_AVDOM_TNO=  0.000000000000000    
_AVDOM_TNOIT=  0.000000000000000    
_AVDOM_PAO=  0.000000000000000    
_AVDOM_LMO=  0.000000000000000    
_CC2OSV_FLAG=  0.000000000000000    
_EOMCCSD_CONV=FALSE
_TMADC2_FLAG=FALSE
_PROPADC2_FLAG=FALSE
_LEN_VirQ=  0.000000000000000    
_GRDCC2LR_FLAG=FALSE
_GRDADC2_FLAG=FALSE
_RO_VGLOBAL=  0.000000000000000    
_OPT=FALSE
_FREQ=FALSE
_HESS=FALSE
_CMRCC_callName=EMPTY
_CMRCC_callCount=  0.000000000000000    
_GECCO_CIROOT=  1.000000000000000    
_SYM_CATION=  3.000000000000000    
_MON_A=FALSE
_MON_B=FALSE
_MAXGEOM=  100.0000000000000    
!MAXGEOM=  100.0000000000000    
_NCORE=  0.000000000000000    
_NLARGECORE=  0.000000000000000    
GX1=  0.000000000000000    
GY1=  0.000000000000000    
GZ1=  1.560769188407929    
GX2=  0.000000000000000    
GY2=  0.000000000000000    
GZ2= -1.431469349554187    
GX3= 0.7346857051554734    
GY3=  0.000000000000000    
GZ3= 0.9722017088967151    
GX4=-0.7346857051554734    
GY4=  0.000000000000000    
GZ4= 0.9722017088967151    
GX5=  0.000000000000000    
GY5=-0.7516690969671039    
GZ5= -1.998242581806255    
GX6=  0.000000000000000    
GY6= 0.7516690969671039    
GZ6= -1.998242581806255    
OX1=  0.000000000000000    
OY1=  0.000000000000000    
OZ1=  2.949426309845424    
OX2=  0.000000000000000    
OY2=  0.000000000000000    
OZ2= -2.705085026453605    
HX3=  1.388354770421404    
HY3=  0.000000000000000    
HZ3=  1.837194967707941    
HX4= -1.388354770421404    
HY4=  0.000000000000000    
HZ4=  1.837194967707941    
HX5=  0.000000000000000    
HY5= -1.420448729612598    
HZ5= -3.776131210178928    
HX6=  0.000000000000000    
HY6=  1.420448729612598    
HZ6= -3.776131210178928    
[Atoms] Angs
O     1    8         0.0000000000        0.0000000000        1.5607691884
O     2    8         0.0000000000        0.0000000000       -1.4314693496
H     3    1         0.7346857052        0.0000000000        0.9722017089
H     4    1        -0.7346857052        0.0000000000        0.9722017089
H     5    1         0.0000000000       -0.7516690970       -1.9982425818
H     6    1         0.0000000000        0.7516690970       -1.9982425818
[GTO]
   1 0
 s    6  1.00
  0.8588500000D+04  0.1895150083D-02
  0.1297230000D+04  0.1438590063D-01
  0.2992960000D+03  0.7073200310D-01
  0.8737710000D+02  0.2400010105D+00
  0.2567890000D+02  0.5947970261D+00
  0.3740040000D+01  0.2808020123D+00
 s    3  1.00
  0.4211750000D+02  0.1138890124D+00
  0.9628370000D+01  0.9208111006D+00
  0.2853320000D+01 -0.3274470358D-02
 s    1  1.00
  0.9056610000D+00  0.1000000000D+01
 s    1  1.00
  0.2556110000D+00  0.1000000000D+01
 p    3  1.00
  0.4211750000D+02  0.3651139738D-01
  0.9628370000D+01  0.2371529830D+00
  0.2853320000D+01  0.8197019412D+00
 p    1  1.00
  0.9056610000D+00  0.1000000000D+01
 p    1  1.00
  0.2556110000D+00  0.1000000000D+01
 d    1  1.00
  0.1292000000D+01  0.1000000000D+01
  
   2 0
 s    6  1.00
  0.8588500000D+04  0.1895150083D-02
  0.1297230000D+04  0.1438590063D-01
  0.2992960000D+03  0.7073200310D-01
  0.8737710000D+02  0.2400010105D+00
  0.2567890000D+02  0.5947970261D+00
  0.3740040000D+01  0.2808020123D+00
 s    3  1.00
  0.4211750000D+02  0.1138890124D+00
  0.9628370000D+01  0.9208111006D+00
  0.2853320000D+01 -0.3274470358D-02
 s    1  1.00
  0.9056610000D+00  0.1000000000D+01
 s    1  1.00
  0.2556110000D+00  0.1000000000D+01
 p    3  1.00
  0.4211750000D+02  0.3651139738D-01
  0.9628370000D+01  0.2371529830D+00
  0.2853320000D+01  0.8197019412D+00
 p    1  1.00
  0.9056610000D+00  0.1000000000D+01
 p    1  1.00
  0.2556110000D+00  0.1000000000D+01
 d    1  1.00
  0.1292000000D+01  0.1000000000D+01
  
   3 0
 s    3  1.00
  0.3386500000D+02  0.2549381454D-01
  0.5094790000D+01  0.1903731086D+00
  0.1158790000D+01  0.8521614860D+00
 s    1  1.00
  0.3258400000D+00  0.1000000000D+01
 s    1  1.00
  0.1027410000D+00  0.1000000000D+01
 p    1  1.00
  0.7500000000D+00  0.1000000000D+01
  
   4 0
 s    3  1.00
  0.3386500000D+02  0.2549381454D-01
  0.5094790000D+01  0.1903731086D+00
  0.1158790000D+01  0.8521614860D+00
 s    1  1.00
  0.3258400000D+00  0.1000000000D+01
 s    1  1.00
  0.1027410000D+00  0.1000000000D+01
 p    1  1.00
  0.7500000000D+00  0.1000000000D+01
  
   5 0
 s    3  1.00
  0.3386500000D+02  0.2549381454D-01
  0.5094790000D+01  0.1903731086D+00
  0.1158790000D+01  0.8521614860D+00
 s    1  1.00
  0.3258400000D+00  0.1000000000D+01
 s    1  1.00
  0.1027410000D+00  0.1000000000D+01
 p    1  1.00
  0.7500000000D+00  0.1000000000D+01
  
   6 0
 s    3  1.00
  0.3386500000D+02  0.2549381454D-01
  0.5094790000D+01  0.1903731086D+00
  0.1158790000D+01  0.8521614860D+00
 s    1  1.00
  0.3258400000D+00  0.1000000000D+01
 s    1  1.00
  0.1027410000D+00  0.1000000000D+01
 p    1  1.00
  0.7500000000D+00  0.1000000000D+01


[MO]
 Sym=      1.1
 Ene=     -20.5681
 Spin= Alpha
 Occup=    2.000000
1 -0.000015761147271
2 -0.000014281544599
3 0.000015588210905
4 -0.000134289941218
5 0.0
6 0.0
7 -0.000009216939890
8 0.0
9 0.0
10 0.000039600643496
11 0.0
12 0.0
13 0.000008298769997
14 0.000000999935912
15 0.000006515322112
16 -0.000007515258024
17 0.0
18 0.0
19 0.0
20 0.55142840377611
21 0.47167391691888
22 0.005586343552013
23 -0.000441360259049
24 0.0
25 0.0
26 -0.001718521358405
27 0.0
28 0.0
29 0.000604633473108
30 0.0
31 0.0
32 -0.000143226787898
33 0.000107150340768
34 -0.000091885060950
35 -0.000015265279818
36 0.0
37 0.0
38 0.0
39 -0.000005021956525
40 0.000031515901650
41 0.000059334621147
42 -0.000027259030163
43 0.0
44 0.000001609043942
45 -0.000005021956525
46 0.000031515901650
47 0.000059334621147
48 0.000027259030163
49 0.0
50 0.000001609043942
51 0.000201382407303
52 0.000067499684576
53 0.000084025804591
54 0.0
55 0.000057330145575
56 0.000011317689035
57 0.000201382407303
58 0.000067499684576
59 0.000084025804591
60 0.0
61 -0.000057330145575
62 0.000011317689035
 Sym=      2.1
 Ene=     -20.5113
 Spin= Alpha
 Occup=    2.000000
1 0.55142844452258
2 0.47167483184087
3 0.005589472931044
4 -0.000506270250053
5 0.0
6 0.0
7 -0.001725827910992
8 0.0
9 0.0
10 0.000596043216249
11 0.0
12 0.0
13 -0.000091135203002
14 -0.000098437900077
15 0.000110501560312
16 -0.000012063660234
17 0.0
18 0.0
19 0.0
20 0.000016169731704
21 0.000012491084659
22 0.000009528977534
23 -0.000016643907057
24 0.0
25 0.0
26 -0.000009376618076
27 0.0
28 0.0
29 0.000029629962138
30 0.0
31 0.0
32 -0.000079420259374
33 0.000000376438656
34 -0.000002012292503
35 0.000001635853847
36 0.0
37 0.0
38 0.0
39 0.000212650767959
40 0.000065328273296
41 0.000137650744431
42 -0.000070756633622
43 0.0
44 0.000017665080449
45 0.000212650767959
46 0.000065328273296
47 0.000137650744431
48 0.000070756633622
49 0.0
50 0.000017665080449
51 -0.000005266235074
52 0.000004785654524
53 -0.000026556419566
54 0.0
55 -0.000005127528414
56 0.000009564422600
57 -0.000005266235074
58 0.000004785654524
59 -0.000026556419566
60 0.0
61 0.000005127528414
62 0.000009564422600
 Sym=      3.1
 Ene=      -1.3746
 Spin= Alpha
 Occup=    2.000000
1 -0.005428866857780
2 -0.009058041080435
3 0.025544563556318
4 0.017106339432027
5 0.0
6 0.0
7 -0.002399876777017
8 0.0
9 0.0
10 -0.004051556092600
11 0.0
12 0.0
13 -0.001444611593386
14 0.000272906836472
15 -0.000532974713685
16 0.000260067877212
17 0.0
18 0.0
19 0.0
20 -0.11341264050093
21 -0.18945629110099
22 0.53812444267892
23 0.37375829539543
24 0.0
25 0.0
26 -0.037047751527104
27 0.0
28 0.0
29 -0.061555269690391
30 0.0
31 0.0
32 -0.017960091722645
33 -0.008342106497059
34 0.005643431027157
35 0.002698675469902
36 0.0
37 0.0
38 0.0
39 0.005211630579843
40 0.005190793169885
41 0.000098597179489
42 -0.001197284783259
43 0.0
44 0.000140245714864
45 0.005211630579843
46 0.005190793169885
47 0.000098597179489
48 0.001197284783259
49 0.0
50 0.000140245714864
51 0.095873583065211
52 0.080210644592015
53 -0.003021717471879
54 0.0
55 0.023956431687691
56 0.014223890193711
57 0.095873583065211
58 0.080210644592015
59 -0.003021717471879
60 0.0
61 -0.023956431687691
62 0.014223890193711
 Sym=      4.1
 Ene=      -1.3199
 Spin= Alpha
 Occup=    2.000000
1 -0.11315658502056
2 -0.18900473599337
3 0.53634234666802
4 0.37435268965951
5 0.0
6 0.0
7 -0.038654328949360
8 0.0
9 0.0
10 -0.064527664691712
11 0.0
12 0.0
13 -0.019237024413864
14 0.005063106681899
15 -0.008302126399822
16 0.003239019717923
17 0.0
18 0.0
19 0.0
20 0.006006182185074
21 0.010047578371421
22 -0.028970452491450
23 -0.016598217911440
24 0.0
25 0.0
26 0.003660341408768
27 0.0
28 0.0
29 0.006233339725393
30 0.0
31 0.0
32 0.002779032433051
33 0.000269403386691
34 -0.000390041037146
35 0.000120637650455
36 0.0
37 0.0
38 0.0
39 0.096392017573785
40 0.080326608246012
41 -0.003749423624297
42 -0.022637427052374
43 0.0
44 0.015720783892091
45 0.096392017573785
46 0.080326608246012
47 -0.003749423624297
48 0.022637427052374
49 0.0
50 0.015720783892091
51 -0.005658395896401
52 -0.006910258268636
53 0.001330906666226
54 0.0
55 -0.001690900307929
56 -0.000918083987978
57 -0.005658395896401
58 -0.006910258268636
59 0.001330906666226
60 0.0
61 0.001690900307929
62 -0.000918083987978
 Sym=      1.3
 Ene=      -0.7434
 Spin= Alpha
 Occup=    2.000000
1 0.0
2 0.0
3 0.0
4 0.0
5 0.0
6 0.001418076799922
7 0.0
8 0.0
9 0.001820407197964
10 0.0
11 0.0
12 0.002606742271649
13 0.0
14 0.0
15 0.0
16 0.0
17 0.0
18 0.0
19 -0.000165121817726
20 0.0
21 0.0
22 0.0
23 0.0
24 0.0
25 0.22835737984726
26 0.0
27 0.0
28 0.35063922442215
29 0.0
30 0.0
31 0.21666552832061
32 0.0
33 0.0
34 0.0
35 0.0
36 0.0
37 0.0
38 -0.028962596681040
39 0.0
40 0.0
41 0.0
42 0.0
43 0.000516806232400
44 0.0
45 0.0
46 0.0
47 0.0
48 0.0
49 0.000516806232400
50 0.0
51 -0.15096299454992
52 -0.20722432820938
53 -0.050832842720514
54 0.0
55 -0.018820115086403
56 -0.025325171338134
57 0.15096299454992
58 0.20722432820938
59 0.050832842720514
60 0.0
61 -0.018820115086403
62 0.025325171338134
 Sym=      1.2
 Ene=      -0.6812
 Spin= Alpha
 Occup=    2.000000
1 0.0
2 0.0
3 0.0
4 0.0
5 0.22815302625852
6 0.0
7 0.0
8 0.34981781839490
9 0.0
10 0.0
11 0.22123250995864
12 0.0
13 0.0
14 0.0
15 0.0
16 0.0
17 0.0
18 -0.029316582986024
19 0.0
20 0.0
21 0.0
22 0.0
23 0.0
24 0.008397902447330
25 0.0
26 0.0
27 0.013576940893860
28 0.0
29 0.0
30 0.011372902081643
31 0.0
32 0.0
33 0.0
34 0.0
35 0.0
36 0.0
37 0.000077999044187
38 0.0
39 0.14963204779743
40 0.20584881103630
41 0.059336615938244
42 -0.016656960704492
43 0.0
44 0.027288961673148
45 -0.14963204779743
46 -0.20584881103630
47 -0.059336615938244
48 -0.016656960704492
49 0.0
50 -0.027288961673148
51 0.0
52 0.0
53 0.0
54 0.000874755090331
55 0.0
56 0.0
57 0.0
58 0.0
59 0.0
60 0.000874755090331
61 0.0
62 0.0
 Sym=      5.1
 Ene=      -0.6073
 Spin= Alpha
 Occup=    2.000000
1 0.014753093573871
2 0.024950885642551
3 -0.073290099897498
4 -0.12667304161947
5 0.0
6 0.0
7 -0.071358115696421
8 0.0
9 0.0
10 -0.10401223937716
11 0.0
12 0.0
13 -0.093470733414190
14 -0.001338234371473
15 -0.003810815132113
16 0.005149049503586
17 0.0
18 0.0
19 0.0
20 -0.034142995682457
21 -0.058003747029194
22 0.17435652687254
23 0.30467389359400
24 0.0
25 0.0
26 0.24163087560197
27 0.0
28 0.0
29 0.35824044444115
30 0.0
31 0.0
32 0.32596469960942
33 0.011664102713979
34 0.003145342457260
35 -0.014809445171239
36 0.0
37 0.0
38 0.0
39 0.025288247793640
40 0.045040340325843
41 0.021092298815294
42 -0.009318915379154
43 0.0
44 -0.006001610204013
45 0.025288247793640
46 0.045040340325843
47 0.021092298815294
48 0.009318915379154
49 0.0
50 -0.006001610204013
51 -0.082784187680178
52 -0.13301132462534
53 -0.024300193405943
54 0.0
55 -0.027386860999078
56 0.007726947123921
57 -0.082784187680178
58 -0.13301132462534
59 -0.024300193405943
60 0.0
61 0.027386860999078
62 0.007726947123921
 Sym=      6.1
 Ene=      -0.5432
 Spin= Alpha
 Occup=    2.000000
1 -0.035007247653027
2 -0.059594430344370
3 0.18122355451889
4 0.30311289826664
5 0.0
6 0.0
7 0.24560707075653
8 0.0
9 0.0
10 0.36499683839863
11 0.0
12 0.0
13 0.32091989979945
14 0.003974449211144
15 0.012072239812897
16 -0.016046689024041
17 0.0
18 0.0
19 0.0
20 -0.014260595380890
21 -0.024350563136969
22 0.074916946875278
23 0.12193057449797
24 0.0
25 0.0
26 0.083230293955139
27 0.0
28 0.0
29 0.12736969203820
30 0.0
31 0.0
32 0.096182019497663
33 0.004345315041962
34 0.001666064250480
35 -0.006011379292442
36 0.0
37 0.0
38 0.0
39 -0.085061941975728
40 -0.14742244814261
41 -0.001915886403666
42 0.027504108248382
43 0.0
44 0.005188296213637
45 -0.085061941975728
46 -0.14742244814261
47 -0.001915886403666
48 -0.027504108248382
49 0.0
50 0.005188296213637
51 -0.028384095703066
52 -0.048188846178302
53 -0.018673383123846
54 0.0
55 -0.010920886360314
56 0.004929281454831
57 -0.028384095703066
58 -0.048188846178302
59 -0.018673383123846
60 0.0
61 0.010920886360314
62 0.004929281454831
 Sym=      2.2
 Ene=      -0.5269
 Spin= Alpha
 Occup=    2.000000
1 0.0
2 0.0
3 0.0
4 0.0
5 -0.011795344813932
6 0.0
7 0.0
8 -0.015147642583646
9 0.0
10 0.0
11 -0.022900749003068
12 0.0
13 0.0
14 0.0
15 0.0
16 0.0
17 0.0
18 0.001168278781423
19 0.0
20 0.0
21 0.0
22 0.0
23 0.0
24 0.29110050791331
25 0.0
26 0.0
27 0.43667107540742
28 0.0
29 0.0
30 0.46416468033275
31 0.0
32 0.0
33 0.0
34 0.0
35 0.0
36 0.0
37 -0.016191144213974
38 0.0
39 -0.004988333437664
40 -0.006397133715716
41 0.022768602082947
42 0.000850464465301
43 0.0
44 -0.002614722682488
45 0.004988333437664
46 0.006397133715716
47 -0.022768602082947
48 0.000850464465301
49 0.0
50 0.002614722682488
51 0.0
52 0.0
53 0.0
54 0.030753674868997
55 0.0
56 0.0
57 0.0
58 0.0
59 0.0
60 0.030753674868997
61 0.0
62 0.0
 Sym=      2.3
 Ene=      -0.4722
 Spin= Alpha
 Occup=    2.000000
1 0.0
2 0.0
3 0.0
4 0.0
5 0.0
6 0.29089642874251
7 0.0
8 0.0
9 0.43482125292935
10 0.0
11 0.0
12 0.46885849319899
13 0.0
14 0.0
15 0.0
16 0.0
17 0.0
18 0.0
19 -0.016673041443562
20 0.0
21 0.0
22 0.0
23 0.0
24 0.0
25 -0.002326805361555
26 0.0
27 0.0
28 -0.003341607898204
29 0.0
30 0.0
31 0.011621783493788
32 0.0
33 0.0
34 0.0
35 0.0
36 0.0
37 0.0
38 -0.000534691682782
39 0.0
40 0.0
41 0.0
42 0.0
43 0.030770645858485
44 0.0
45 0.0
46 0.0
47 0.0
48 0.0
49 0.030770645858485
50 0.0
51 0.000541312881733
52 0.018887545687784
53 -0.014139956299033
54 0.0
55 0.001215201493249
56 0.002327232255509
57 -0.000541312881733
58 -0.018887545687784
59 0.014139956299033
60 0.0
61 0.001215201493249
62 -0.002327232255509
 Sym=      7.1
 Ene=       0.1313
 Spin= Alpha
 Occup=    0.000000
1 0.010452164690940
2 0.017201892870722
3 -0.037179837785585
4 -0.21577409816297
5 0.0
6 0.0
7 0.032561516181349
8 0.0
9 0.0
10 0.048081125441905
11 0.0
12 0.0
13 0.075001296829220
14 -0.000487157496883
15 0.001344766599497
16 -0.000857609102614
17 0.0
18 0.0
19 0.0
20 0.034609758683584
21 0.056772798649274
22 -0.11594377475323
23 -0.81002748600432
24 0.0
25 0.0
26 0.056894976742970
27 0.0
28 0.0
29 0.098141710043457
30 0.0
31 0.0
32 0.13463589609666
33 0.003768556110141
34 -0.001296582850344
35 -0.002471973259797
36 0.0
37 0.0
38 0.0
39 0.006797377128797
40 -0.020116368658428
41 0.21018086640516
42 0.004822070628225
43 0.0
44 -0.002117247001710
45 0.006797377128797
46 -0.020116368658428
47 0.21018086640516
48 -0.004822070628225
49 0.0
50 -0.002117247001710
51 0.033779363359197
52 -0.065400141513203
53 0.77467598641809
54 0.0
55 -0.007607441914785
56 0.003465082631277
57 0.033779363359197
58 -0.065400141513203
59 0.77467598641809
60 0.0
61 0.007607441914785
62 0.003465082631277
 Sym=      3.3
 Ene=       0.2033
 Spin= Alpha
 Occup=    0.000000
1 0.0
2 0.0
3 0.0
4 0.0
5 0.0
6 0.007237389292466
7 0.0
8 0.0
9 0.013948819638139
10 0.0
11 0.0
12 0.006243972109853
13 0.0
14 0.0
15 0.0
16 0.0
17 0.0
18 0.0
19 0.000502460535141
20 0.0
21 0.0
22 0.0
23 0.0
24 0.0
25 0.12062812531902
26 0.0
27 0.0
28 0.13005023369623
29 0.0
30 0.0
31 0.49196740162085
32 0.0
33 0.0
34 0.0
35 0.0
36 0.0
37 0.0
38 -0.004877986543560
39 0.0
40 0.0
41 0.0
42 0.0
43 -0.000926177074598
44 0.0
45 0.0
46 0.0
47 0.0
48 0.0
49 -0.000926177074598
50 0.0
51 0.024436175694261
52 -0.12402725975518
53 1.56917928572539
54 0.0
55 -0.009271353335252
56 -0.008675769629618
57 -0.024436175694261
58 0.12402725975518
59 -1.56917928572539
60 0.0
61 -0.009271353335252
62 0.008675769629618
 Sym=      8.1
 Ene=       0.2202
 Spin= Alpha
 Occup=    0.000000
1 0.035088895950138
2 0.057571802645931
3 -0.11389859532724
4 -0.89312684071005
5 0.0
6 0.0
7 0.057275995285142
8 0.0
9 0.0
10 0.082802161070006
11 0.0
12 0.0
13 0.20788082222813
14 -0.000687012761794
15 0.005369050863154
16 -0.004682038101360
17 0.0
18 0.0
19 0.0
20 -0.001449101312353
21 -0.001515902243723
22 -0.024422689355715
23 0.29169266055552
24 0.0
25 0.0
26 -0.070827779817481
27 0.0
28 0.0
29 -0.088064904546672
30 0.0
31 0.0
32 -0.28679657102239
33 -0.006610948739021
34 -0.002391453791093
35 0.009002402530115
36 0.0
37 0.0
38 0.0
39 0.041736062359012
40 -0.060044247884021
41 0.88578509437330
42 0.008099740525605
43 0.0
44 0.011620630804800
45 0.041736062359012
46 -0.060044247884021
47 0.88578509437330
48 -0.008099740525605
49 0.0
50 0.011620630804800
51 -0.007683538232032
52 -0.025375221681938
53 -0.37322343664758
54 0.0
55 -0.005136925878180
56 -0.001710185119595
57 -0.007683538232032
58 -0.025375221681938
59 -0.37322343664758
60 0.0
61 0.005136925878180
62 -0.001710185119595
 Sym=      3.2
 Ene=       0.2496
 Spin= Alpha
 Occup=    0.000000
1 0.0
2 0.0
3 0.0
4 0.0
5 -0.11980814221074
6 0.0
7 0.0
8 -0.12708637859183
9 0.0
10 0.0
11 -0.48027698655465
12 0.0
13 0.0
14 0.0
15 0.0
16 0.0
17 0.0
18 0.004646016480228
19 0.0
20 0.0
21 0.0
22 0.0
23 0.0
24 -0.034756315745629
25 0.0
26 0.0
27 -0.053377364034731
28 0.0
29 0.0
30 -0.070610972680539
31 0.0
32 0.0
33 0.0
34 0.0
35 0.0
36 0.0
37 0.007161079476171
38 0.0
39 0.025299087917149
40 -0.15454119718550
41 1.62436077512261
42 0.010046943521020
43 0.0
44 -0.007822993541560
45 -0.025299087917149
46 0.15454119718550
47 -1.62436077512261
48 0.010046943521020
49 0.0
50 0.007822993541560
51 0.0
52 0.0
53 0.0
54 -0.006276401743489
55 0.0
56 0.0
57 0.0
58 0.0
59 0.0
60 -0.006276401743489
61 0.0
62 0.0
 Sym=      4.3
 Ene=       0.5524
 Spin= Alpha
 Occup=    0.000000
1 0.0
2 0.0
3 0.0
4 0.0
5 0.0
6 -0.018536739396201
7 0.0
8 0.0
9 -0.059535867735214
10 0.0
11 0.0
12 0.040385549236210
13 0.0
14 0.0
15 0.0
16 0.0
17 0.0
18 0.0
19 -0.000792884410407
20 0.0
21 0.0
22 0.0
23 0.0
24 0.0
25 0.11716240298537
26 0.0
27 0.0
28 0.17953034208227
29 0.0
30 0.0
31 1.18831913667268
32 0.0
33 0.0
34 0.0
35 0.0
36 0.0
37 0.0
38 0.012582439975792
39 0.0
40 0.0
41 0.0
42 0.0
43 0.010447589730538
44 0.0
45 0.0
46 0.0
47 0.0
48 0.0
49 0.010447589730538
50 0.0
51 0.080124090978926
52 1.49079310014891
53 -0.71517492762812
54 0.0
55 0.028675638113181
56 0.001050817080084
57 -0.080124090978926
58 -1.49079310014891
59 0.71517492762812
60 0.0
61 0.028675638113181
62 -0.001050817080084
 Sym=      9.1
 Ene=       0.5967
 Spin= Alpha
 Occup=    0.000000
1 0.008089551196004
2 0.014730384988352
3 -0.053824007837620
4 -0.17730874363551
5 0.0
6 0.0
7 0.028419692625602
8 0.0
9 0.0
10 0.056656311189314
11 0.0
12 0.0
13 0.14420504514285
14 0.002556195252894
15 -0.002074460497221
16 -0.000481734755672
17 0.0
18 0.0
19 0.0
20 0.033513659151912
21 0.059154376417737
22 -0.14055797374286
23 -1.45951871903967
24 0.0
25 0.0
26 0.086245360876603
27 0.0
28 0.0
29 0.15220548782180
30 0.0
31 0.0
32 1.11951181109764
33 -0.001610457939140
34 0.011975878379608
35 -0.010365420440468
36 0.0
37 0.0
38 0.0
39 0.004169516770506
40 0.27032917878629
41 -0.081731708644072
42 -0.005532306670055
43 0.0
44 -0.012366489521391
45 0.004169516770506
46 0.27032917878629
47 -0.081731708644072
48 0.005532306670055
49 0.0
50 -0.012366489521391
51 0.064708667184107
52 1.82759221873121
53 -0.58933198152190
54 0.0
55 0.043774701090488
56 0.041332245543907
57 0.064708667184107
58 1.82759221873121
59 -0.58933198152190
60 0.0
61 -0.043774701090488
62 0.041332245543907
 Sym=      4.2
 Ene=       0.5990
 Spin= Alpha
 Occup=    0.000000
1 0.0
2 0.0