[Molden Format]
[Molpro variables]
_NUMVAR=  1058.000000000000    
_AVOGAD= 0.6022140760000000E+24
_BOLTZ= 0.1380649000000000E-22
_CLIGHTSI=  299792458.0000000    
_JOULE= 0.4359744722207100E-17
_JPCAL=  4.184000000000000    
_PLANCK= 0.6626070150000000E-33
_BOHR= 0.5291772109030000E-10
_ECHARG= 0.1602176634000000E-18
_ENULL= 0.8854187812800001E-11
_MU= 0.1660539066600000E-26
_EMASS= 0.9109383701500001E-30
_AMU2AU=  1822.888486217313    
_CLIGHT=  29979245800.00000    
_EV= 0.3674932217565494E-01
_KJOULE= 0.3808798847133432E-03
_KJOULE/MOL= 0.3808798847133432E-03
_CM= 0.4556335252912009E-05
_CM-1= 0.4556335252912009E-05
_DEB2SI= 0.3335640951981520E-29
_KCAL= 0.1593601437640628E-02
_KCAL/MOL= 0.1593601437640628E-02
_KELVIN= 0.3166811563455608E-05
_HERTZ= 0.1519829846057038E-15
_HZ= 0.1519829846057038E-15
_TOA= 0.5291772109030000    
_TOANG= 0.5291772109030000    
_TORAD= 0.1745329251994330E-01
_TOCM=  219474.6313631965    
_TODEBYE=  2.541746473194078    
_TOE= 0.4803204712570263E-09
_TOEV=  27.21138624598803    
_TOHERTZ=  6579683920501656.    
_TOHZ=  6579683920501656.    
_TOK=  315775.0248040668    
_TOKCAL=  627.5094740630558    
_TOKELVIN=  315775.0248040668    
_TOKJ=  2625.499639479825    
_TOKJOULE=  2625.499639479825    
_TOKG= 0.1660539066600000E-26
_ANG=  1.889726124625770    
_ANGSTROM=  1.889726124625770    
_RPAREF=  0.000000000000000    
_RPADISS=  0.000000000000000    
_IGNORE_UNDEF=  2.000000000000000    
_STRICTCHECK=  0.000000000000000    
!SEWARD=  0.000000000000000    
!MULTI=  0.000000000000000    
!DFMULTI=  0.000000000000000    
!NUMHESS=  0.000000000000000    
_SEW_ONEEL=  0.000000000000000    
_CPPDONE=FALSE
_DKROLL_DONE=  0.000000000000000    
_FNUC_DONE=  0.000000000000000    
_FOCKDONE=TRUE
_GRADONE=FALSE
_HESSDONE=TRUE
_INTDONE=TRUE
_SCFDONE=TRUE
_MODUL_BLOCK=FALSE
_MODUL_SLATER=TRUE
_MODUL_MRCC=FALSE
_MODUL_NBO6=FALSE
_MODUL_NECI=FALSE
_MODUL_AIMS=TRUE
_MODUL_HDF5=FALSE
_MODUL_GECCO=FALSE
_ISWINDOWS=FALSE
_MRCC_EXEC=
_FITC_AO_SAVED=FALSE
_FITC_MO_SAVED=FALSE
_LSTYP=SEWARD
_INTYP=INTS
_GEOMTYP=XYZ
_GRADTYP=ALASKA
_DIRECT=FALSE
_DKHO= -1.000000000000000    
_FNUC=  0.000000000000000    
_SYNCM=  0.000000000000000    
_BASIS=6-311G(D,P)
_ZCENTRE=MASS
_ZORIENT=  1.000000000000000    
_NELEC=  10.00000000000000    
!SPIN=  0.000000000000000    
_OPTCONV= 0.1139528042410525E-02
_QSDSTEP=  0.000000000000000    
_QSDIRC=  0.000000000000000    
_PROGRAM=FREQ
_CPUSTEP= 0.1899999999999999    
_SYSSTEP=  0.000000000000000    
_WALLSTEP= 0.2100000000000000    
!DFSCF=  0.000000000000000    
!SCSGRD=  0.000000000000000    
_NCEN=  3.000000000000000    
_CPUTOT= 0.7700000000000000    
_DFTEXFAC=  1.000000000000000    
_DMX=  0.000000000000000    
_DMY= 0.7885173884664143    
_DMZ= 0.2925192717523090    
_DMX_SCF=  0.000000000000000    
_DMY_SCF= 0.7885173884664143    
_DMZ_SCF= 0.2925192717523090    
_FREQUENCIES= 0.7892672516873127E-04
_HOMO=  1.200000000000000    
_EHOMO=-0.5006660662028302    
_LUMO=  5.100000000000000    
_ELUMO= 0.1525987524889518    
_ENERGY= -76.04701202779196    
_ENERGY_METHOD=HF
_ENERGY_BASIS=6-311G(D,P)
_GEOMETRY_METHOD=HF
_GEOMETRY_BASIS=6-311G(D,P)
_ENUC=  9.351274058303753    
_GRADENERG= -76.04701190812074    
_GRADEXFAC=  9999.000000000000    
_GRADMETHOD=  1.000000000000000    
_NMRMETHOD=  0.000000000000000    
_NMRMAGNET=  0.000000000000000    
_VIRIAL= 0.2550640568436391E-03
!GRID_FREEZE= -1.000000000000000    
!NEESE_INDEX=  0.000000000000000    
_ITERATIONS=  10.00000000000000    
_LASTNELEC=  10.00000000000000    
_LASTSPIN=  0.000000000000000    
_LASTSYM=  1.000000000000000    
_MPP_PROG=  0.000000000000000    
_MSNSTATES=  0.000000000000000    
_RS2PHASE=  0.000000000000000    
_NPROC_MPP=  1.000000000000000    
_NPROC_SMP=  6.000000000000000    
_NUMSTEP=  0.000000000000000    
_OPTCONVMX= 0.9313364691827401E-03
_OPTCONVRMS= 0.8057680061407142E-03
_OPTGRAD= 0.2259791950154994E-03
_OPTGRADMX= 0.2203379696195259E-03
_OPTGRADRMS= 0.1597914212025369E-03
!GMAXLAST= 0.2203379696195259E-03
!DMAXLAST= 0.9313364691827401E-03
!DELAST= 0.8302271240268055E-05
_OPTSTEP=  3.000000000000000    
_ORBITAL=  2100.200000000000    
_PI=  3.141592653589793    
_SEIG_MIN= 0.1696968036679801E-01
_SEWPROP=TRUE
_STATUS=  1.000000000000000    
_SYSTOT= 0.1800000000000000    
_VERSION=  2024001.000000000    
_WALLTOT= 0.9600000000000000    
_ZPE= 0.1998068659602234E-01
_DATE=30-Sep-24
_LASTORB=0
_OUTPUT=/home/lme/Theoretische_Chemie/Nomodeco/deuterium_calculations/h2o/hdo.molpro/run/hdo_1.molpro/hdo_1.out
_PGROUP=Cs
_TIME=15:16:32
_LIBMOL=/usr/local/molpro/molpro_2024.1.0_sockets/lib/
_VIGRDC=  0.000000000000000    
!VIBCNT=  0.000000000000000    
!SURFREC=  0.000000000000000    
!XSURFREC=  0.000000000000000    
!XPOLYREC=  0.000000000000000    
!ROTREC=  0.000000000000000    
!POLYREC=  0.000000000000000    
!DIPREC=  0.000000000000000    
!DIP4DREC=  0.000000000000000    
!DIPROT=  0.000000000000000    
!DIP4DROT=  0.000000000000000    
!PTREC=  0.000000000000000    
!PT4DREC=  0.000000000000000    
!VSCFREC=  0.000000000000000    
!VCIREC=  0.000000000000000    
!PVCIREC=  0.000000000000000    
!VMP2REC=  0.000000000000000    
!VMCSCFREC=  0.000000000000000    
!VMRCIREC=  0.000000000000000    
!VIBSTATEREC=  0.000000000000000    
!VIBSTATECNT=  0.000000000000000    
!VIBINFO=  0.000000000000000    
!GAREC=  0.000000000000000    
!SCFORB=  21002.00000000000    
!DEFCORE=  1.000000000000000    
!SCORE=  0.000000000000000    
!NEWMOL=  0.000000000000000    
!NEWSYM=  0.000000000000000    
_SLFILES=slscratch
_NGSSTO=  9.000000000000000    
_SIN=SIN
_COS=COS
_TAN=TAN
_ACOS=ACOS
_ASIN=ASIN
_ATAN=ATAN
_COSH=COSH
_SINH=SINH
_TANH=TANH
_ABS=ABS
_MOD=MOD
_ERF=ERF
_REFC=REFC
_ERFC=ERFC
_HYPOT=HYPOT
_J0=J0
_J1=J1
_JN=JN
_GAMMA=GAMMA
_LGAMMA=LGAMMA
_Y0=Y0
_Y1=Y1
_YN=YN
_EXP=EXP
_LOG=LOG
_LOG10=LOG10
_SQRT=SQRT
_INT=INT
_NINT=NINT
_MAX=MAX
_MIN=MIN
_COSMO=  0.000000000000000    
_COSMOIT=  0.000000000000000    
_COSMOES=  0.000000000000000    
_COSMOEDS=  0.000000000000000    
_COSMOEC=  0.000000000000000    
_COSMOEDCORR=  0.000000000000000    
_FEPSI=  1.000000000000000    
_SL_IsMM=  0.000000000000000    
_SL_NSYM=  2.000000000000000    
_SL_System_BitSw=  0.000000000000000    
_SL_Unique_atoms=  0.000000000000000    
_SL_GRAD=  0.000000000000000    
_SL_MAXUPD_Hess=  5.000000000000000    
_SL_N_PRINT_COD=  5.000000000000000    
_SL_PRINT_CODES=  0.000000000000000    
_SL_BasType=  0.000000000000000    
_SL_Energy_Pred=  0.000000000000000    
_SL_New_Coords=  0.000000000000000    
_SL_Total_Nuclea=  0.000000000000000    
_SL_Highest_Mltp=  0.000000000000000    
_SL_Ref_Geom=  0.000000000000000    
_SL_Symmetry_ope=  1.000000000000000    
_SL_agrad=  0.000000000000000    
_SL_GrdMax=  0.000000000000000    
_SL_GrdNorm=  0.000000000000000    
_SL_GrdRMS=  0.000000000000000    
_SL_Hss_Q=  0.000000000000000    
_SL_Hss_X=  0.000000000000000    
_SL_BMxOld=  0.000000000000000    
_SL_KtB=  0.000000000000000    
_SL_TROld=  0.000000000000000    
_SL_No_of_Intern=  0.000000000000000    
_SL_Hess=  0.000000000000000    
_SL_K=  0.000000000000000    
!LATTICE= -1.000000000000000    
!NEWLATTICE=  0.000000000000000    
!LATGRAD_VAR=FALSE
!SEW_LATTICE=  1.000000000000000    
!AIC_ONEEL=  0.000000000000000    
!LOCAL=  0.000000000000000    
!SAVEDOM= -1.000000000000000    
!RESTDOM= -1.000000000000000    
!SAVEDOM_HF= -1.000000000000000    
!RESTDOM_HF= -1.000000000000000    
!HESSREC=  5300.200000000000    
!FREQREC=  5400.200000000000    
!NMODREC=  5450.200000000000    
!GTASKS=  0.000000000000000    
!HTASKS=  0.000000000000000    
!SAVEDOM_EOM= -1.000000000000000    
!RESTDOM_EOM= -1.000000000000000    
!GRADSTATE= -1.000000000000000    
!DEBUG=  0.000000000000000    
!CFIT_CPHF=  0.000000000000000    
!RDOMAUX_CPHF=  0.000000000000000    
!THRAO_CPHF= 0.1000000000000000E-11
!THRMO_CPHF= 0.1000000000000000E-11
!THROV_CPHF= 0.1000000000000000E-13
!THRSW_CPHF= 0.1000000000000000E-11
!THRPROD_CPHF= 0.1000000000000000E-11
!THRAOPR_CPHF= 0.1000000000000000E-11
!CFIT_SCFGRD=  0.000000000000000    
!RDOMAUX_SCFGRD=  0.000000000000000    
!THRAO_SCFGRD= 0.1000000000000000E-11
!THRMO_SCFGRD= 0.1000000000000000E-11
!THROV_SCFGRD= 0.1000000000000000E-13
!THRSW_SCFGRD= 0.1000000000000000E-11
!THRPROD_SCFGRD= 0.1000000000000000E-11
!THRAOPR_SCFGRD= 0.1000000000000000E-11
!LOCFIT_SCF=  0.000000000000000    
!LOCFIT_MP2=  0.000000000000000    
_RIDOM=  0.000000000000000    
!CC2_METHOD=  0.000000000000000    
_BASIS2006=FALSE
_SVDDEL= -1.000000000000000    
_SVDDELA= -1.000000000000000    
_SVDDELP= -1.000000000000000    
_SVDDELF= -1.000000000000000    
_SVDDELS= -1.000000000000000    
_SVDDEL_ABS= -1.000000000000000    
_SVDDELA_ABS= -1.000000000000000    
_SVDDELP_ABS= -1.000000000000000    
_SVDDELF_ABS= -1.000000000000000    
_SVDDELS_ABS= -1.000000000000000    
_MAXBASIS=  0.000000000000000    
!OPT_CONICAL=  0.000000000000000    
!CLEARSP_JGRID=  0.000000000000000    
_GRDHYBR=  0.000000000000000    
_STATEGRAD=  1.000000000000000    
_4EXT_NDISKS=  1.000000000000000    
!EMBEDFLAG=  1.000000000000000    
!EMBED=FALSE
!EMBED_F12=FALSE
!EMBEDNUC=  0.000000000000000    
_EMBEDENERGY=  0.000000000000000    
!EMBED_DFC=FALSE
!NUM_VOIDS=  0.000000000000000    
_IBODY=  0.000000000000000    
_EMBE_CORR=  0.000000000000000    
!EMBED_PROJ=FALSE
!EMB_PROJ_ZMU=  1000000.000000000    
!CORRECTION_HF=  0.000000000000000    
!EMBED_AORB=  0.000000000000000    
!EMBED_NACORR=  0.000000000000000    
!EMBED_MP2=FALSE
!EMBED_TRUNC_PERTURBATION=FALSE
!EMBED_FROZEN=  0.000000000000000    
!EMBED_ACTIVE=  0.000000000000000    
_CHANGE_BASIS=FALSE
_RESTORE_BASIS=FALSE
_FIX_EMBED_GUESS=FALSE
_EMBED_SCF=FALSE
_NEOBAS=FALSE
_NEOOVE=FALSE
_PRINEO=FALSE
_HUZINAGA_T=FALSE
_HUZINAGA_F=FALSE
_HUZINAGA=FALSE
_HUZINAGA_CORRECT=FALSE
!FASTLATGRAD=  1.000000000000000    
!FASTVLAMBDA= -1.000000000000000    
!IFORCE= -1.000000000000000    
!USESYM= -1.000000000000000    
_SINDEX=  0.000000000000000    
_AVDOM_OSV=  0.000000000000000    
_AVDOM_PNO=  0.000000000000000    
_AVDOM_PNOCC=  0.000000000000000    
_AVDOM_TNO=  0.000000000000000    
_AVDOM_TNOIT=  0.000000000000000    
_AVDOM_PAO=  0.000000000000000    
_AVDOM_LMO=  0.000000000000000    
_CC2OSV_FLAG=  0.000000000000000    
_EOMCCSD_CONV=FALSE
_TMADC2_FLAG=FALSE
_PROPADC2_FLAG=FALSE
_LEN_VirQ=  0.000000000000000    
_GRDCC2LR_FLAG=FALSE
_GRDADC2_FLAG=FALSE
_RO_VGLOBAL=  0.000000000000000    
_OPT=FALSE
_FREQ=FALSE
_HESS=FALSE
_CMRCC_callName=EMPTY
_CMRCC_callCount=  0.000000000000000    
_GECCO_CIROOT=  1.000000000000000    
_SYM_CATION=  2.000000000000000    
_MON_A=FALSE
_MON_B=FALSE
_MAXGEOM=  100.0000000000000    
!MAXGEOM=  100.0000000000000    
_NCORE=  0.000000000000000    
_NLARGECORE=  0.000000000000000    
GX1=  0.000000000000000    
GY1=-0.7109972087161401E-01
GZ1=-0.6861998964963446E-01
GX2=  0.000000000000000    
GY2= 0.2026892358295645    
GZ2= 0.8316432491645024    
GX3=  0.000000000000000    
GY3= 0.7235914371416535    
GZ3=-0.5725051505218027    
OX1=  0.000000000000000    
OY1=-0.1343589999846891    
OZ1=-0.1296729871124642    
H1X2=  0.000000000000000    
H1Y2= 0.3830271441275617    
H1Z2=  1.571577974314819    
H2X3=  0.000000000000000    
H2Y3=  1.367389642322089    
H2Z3= -1.081877939423860    
[Atoms] Angs
O     1    8         0.0000000000       -0.0710997209       -0.0686199896
H     2    1         0.0000000000        0.2026892358        0.8316432492
H     3    1         0.0000000000        0.7235914371       -0.5725051505
[GTO]
   1 0
 s    6  1.00
  0.8588500000D+04  0.1895150083D-02
  0.1297230000D+04  0.1438590063D-01
  0.2992960000D+03  0.7073200310D-01
  0.8737710000D+02  0.2400010105D+00
  0.2567890000D+02  0.5947970261D+00
  0.3740040000D+01  0.2808020123D+00
 s    3  1.00
  0.4211750000D+02  0.1138890124D+00
  0.9628370000D+01  0.9208111006D+00
  0.2853320000D+01 -0.3274470358D-02
 s    1  1.00
  0.9056610000D+00  0.1000000000D+01
 s    1  1.00
  0.2556110000D+00  0.1000000000D+01
 p    3  1.00
  0.4211750000D+02  0.3651139738D-01
  0.9628370000D+01  0.2371529830D+00
  0.2853320000D+01  0.8197019412D+00
 p    1  1.00
  0.9056610000D+00  0.1000000000D+01
 p    1  1.00
  0.2556110000D+00  0.1000000000D+01
 d    1  1.00
  0.1292000000D+01  0.1000000000D+01
  
   2 0
 s    3  1.00
  0.3386500000D+02  0.2549381454D-01
  0.5094790000D+01  0.1903731086D+00
  0.1158790000D+01  0.8521614860D+00
 s    1  1.00
  0.3258400000D+00  0.1000000000D+01
 s    1  1.00
  0.1027410000D+00  0.1000000000D+01
 p    1  1.00
  0.7500000000D+00  0.1000000000D+01
  
   3 0
 s    3  1.00
  0.3386500000D+02  0.2549381454D-01
  0.5094790000D+01  0.1903731086D+00
  0.1158790000D+01  0.8521614860D+00
 s    1  1.00
  0.3258400000D+00  0.1000000000D+01
 s    1  1.00
  0.1027410000D+00  0.1000000000D+01
 p    1  1.00
  0.7500000000D+00  0.1000000000D+01


[MO]
 Sym=      1.1
 Ene=     -20.5413
 Spin= Alpha
 Occup=    2.000000
1 0.55142989325926
2 0.47167849777183
3 0.005566602160313
4 -0.000465162384421
5 0.0
6 0.001673759578941
7 0.000620920795304
8 0.0
9 -0.000579088741247
10 -0.000214826674667
11 0.0
12 0.000088719688621
13 0.000032912647241
14 0.000115378662525
15 -0.000027458536544
16 -0.000087920125980
17 0.0
18 0.0
19 0.000030032703359
20 0.000208611106759
21 0.000083188729005
22 0.000098883400502
23 0.0
24 0.000014240064960
25 -0.000069685153710
26 0.000208611114369
27 0.000083188716375
28 0.000098883393753
29 0.0
30 -0.000034653353035
31 0.000062112376097
 Sym=      2.1
 Ene=      -1.3491
 Spin= Alpha
 Occup=    2.000000
1 -0.11335956326012
2 -0.18935720243996
3 0.53787748438397
4 0.37190488271146
5 0.0
6 0.035656620082890
7 0.013227671454252
8 0.0
9 0.059202214145709
10 0.021962469418514
11 0.0
12 0.019482048459972
13 0.007227329207949
14 -0.008344493339963
15 0.003103371907231
16 0.005241121432732
17 0.0
18 0.0
19 -0.001061870062299
20 0.096562434164162
21 0.081307819929031
22 -0.002674920146466
23 0.0
24 -0.005214073007268
25 -0.027380822399718
26 0.096562432970388
27 0.081307818787317
28 -0.002674918709833
29 0.0
30 -0.021810097470499
31 0.017355564378112
 Sym=      3.1
 Ene=      -0.7172
 Spin= Alpha
 Occup=    2.000000
1 0.000000000468125
2 0.000000000756164
3 -0.000000001129706
4 -0.000000004587428
5 0.0
6 -0.079085075904159
7 0.21318241031984
8 0.0
9 -0.12133817598280
10 0.32708022959754
11 0.0
12 -0.073660996031237
13 0.19856121309193
14 0.000000000014004
15 -0.016564415396636
16 0.016564415382632
17 0.0
18 0.0
19 0.022231573761163
20 0.15126547801797
21 0.21225549387954
22 0.054487426153831
23 0.0
24 -0.017561518071307
25 -0.026467965855540
26 -0.15126547685918
27 -0.21225548954607
28 -0.054487432042848
29 0.0
30 0.030574768807005
31 -0.008610666945952
 Sym=      4.1
 Ene=      -0.5729
 Spin= Alpha
 Occup=    2.000000
1 0.038139981093477
2 0.064860008051476
3 -0.19645623280088
4 -0.33484728677720
5 0.0
6 0.23972759985179
7 0.088932646097832
8 0.0
9 0.35457477048635
10 0.13153793126749
11 0.0
12 0.31876530121263
13 0.11825356142813
14 -0.012876263327248
15 0.014433274446143
16 -0.001557011118895
17 0.0
18 0.0
19 0.007942748837835
20 0.087465150414728
21 0.14600196474806
22 0.027263735041226
23 0.0
24 0.019305118917537
25 -0.024536362312749
26 0.087465153834608
27 0.14600197388558
28 0.027263739689989
29 0.0
30 -0.001368095168115
31 0.031190528127349
 Sym=      1.2
 Ene=      -0.5007
 Spin= Alpha
 Occup=    2.000000
1 0.0
2 0.0
3 0.0
4 0.0
5 0.29169577532386
6 0.0
7 0.0
8 0.43668226111293
9 0.0
10 0.0
11 0.46587801940218
12 0.0
13 0.0
14 0.0
15 0.0
16 0.0
17 0.016070227538293
18 0.005961632598403
19 0.0
20 0.0
21 0.0
22 0.0
23 0.031532183353977
24 0.0
25 0.0
26 0.0
27 0.0
28 0.0
29 0.031532182622090
30 0.0
31 0.0
 Sym=      5.1
 Ene=       0.1526
 Spin= Alpha
 Occup=    0.000000
1 0.033502817421702
2 0.054636275477328
3 -0.10270012441659
4 -0.85277870740105
5 0.0
6 -0.067115382245036
7 -0.024898047711959
8 0.0
9 -0.10683632034956
10 -0.039633473012787
11 0.0
12 -0.18744137686501
13 -0.069535842503353
14 0.005458371559406
15 -0.004117571357568
16 -0.001340800201838
17 0.0
18 0.0
19 -0.001379287262910
20 0.034136846699702
21 -0.068274503649589
22 0.84442415224482
23 0.0
24 -0.005354883649577
25 0.003479868864838
26 0.034136844534060
27 -0.068274499157561
28 0.84442407113307
29 0.0
30 -0.001789749429884
31 -0.006130339243545
 Sym=      6.1
 Ene=       0.2186
 Spin= Alpha
 Occup=    0.000000
1 -0.000000000923409
2 -0.000000001515766
3 0.000000003125301
4 0.000000020470835
5 0.0
6 0.041819357304779
7 -0.11272860794410
8 0.0
9 0.044333384185590
10 -0.11950543601527
11 0.0
12 0.17232978038106
13 -0.46453360495120
14 -0.000000000126446
15 0.003127015214759
16 -0.003127015088313
17 0.0
18 0.0
19 -0.004196855769110
20 0.023623930654156
21 -0.13011043591035
22 1.58002963241443
23 0.0
24 0.004594831144816
25 0.011146294879483
26 -0.023623932365012
27 0.13011044335019
28 -1.58002967723478
29 0.0
30 -0.010752652601504
31 0.005452781710819
 Sym=      7.1
 Ene=       0.5772
 Spin= Alpha
 Occup=    0.000000
1 0.000000001074948
2 0.000000001868610
3 -0.000000004457539
4 -0.000000042477513
5 0.0
6 0.041856037310208
7 -0.11282749864516
8 0.0
9 0.064606645088360
10 -0.17415424046967
11 0.0
12 0.40727566054974
13 -1.09785581265004
14 -0.000000000182504
15 -0.007353371370199
16 0.007353371552703
17 0.0
18 0.0
19 0.009869168542339
20 0.079808289447896
21 1.48644430238514
22 -0.72178472138073
23 0.0
24 0.011672384043718
25 -0.023634323085797
26 -0.079808284717279
27 -1.48644419067106
28 0.72178468239342
29 0.0
30 0.006565815387132
31 -0.025528725565884
 Sym=      8.1
 Ene=       0.6207
 Spin= Alpha
 Occup=    0.000000
1 0.033596362493355
2 0.059028085822772
3 -0.13501003173869
4 -1.48863499959238
5 0.0
6 -0.090021547851630
7 -0.033395628056709
8 0.0
9 -0.17399879050923
10 -0.064548979168304
11 0.0
12 -1.02048707670108
13 -0.37857387594118
14 -0.001401436615868
15 -0.008372184524975
16 0.009773621140842
17 0.0
18 0.0
19 -0.009013447032338
20 0.062656568653440
21 1.85071377663326
22 -0.60057527645964
23 0.0
24 -0.028997780125100
25 -0.050111908122826
26 0.062656573687156
27 1.85071387388275
28 -0.60057531663708
29 0.0
30 -0.054664462569729
31 0.019075416482305
 Sym=      9.1
 Ene=       0.9975
 Spin= Alpha
 Occup=    0.000000
1 -0.012907922847763
2 -0.024136976179989
3 0.046478491631542
4 0.95095434222660
5 0.0
6 -0.22036084627934
7 -0.081748089878045
8 0.0
9 -0.68995655636437
10 -0.25595577303750
11 0.0
12 1.46981636780617
13 0.54526330014965
14 -0.013062667553827
15 -0.001891603405314
16 0.014954270959140
17 0.0
18 0.0
19 -0.008367740799007
20 -0.033764897376467
21 -0.57476936702469
22 -0.11535612428771
23 0.0
24 0.040336436861323
25 0.17706909971874
26 -0.033764896512689
27 -0.57476935917867
28 -0.11535612558129
29 0.0
30 0.14606022079644
31 -0.10792083187616
 Sym=      2.2
 Ene=       1.0031
 Spin= Alpha
 Occup=    0.000000
1 0.0
2 0.0
3 0.0
4 0.0
5 -0.23940067616672
6 0.0
7 0.0
8 -0.83600707988585
9 0.0
10 0.0
11 1.15633071580947
12 0.0
13 0.0
14 0.0
15 0.0
16 0.0
17 -0.007871708313173
18 -0.002920197255639
19 0.0
20 0.0
21 0.0
22 0.0
23 -0.027705697849194
24 0.0
25 0.0
26 0.0
27 0.0
28 0.0
29 -0.027705698893076
30 0.0
31 0.0
 Sym=     10.1
 Ene=       1.1114
 Spin= Alpha
 Occup=    0.000000
1 0.000000000642495
2 0.000000001367864
3 -0.000000011352370
4 0.000000029842962
5 0.0
6 0.083837829578103
7 -0.22599396450161
8 0.0
9 0.24520821463854
10 -0.66098533697064
11 0.0
12 -0.62692843787283
13 1.68995364242799
14 -0.000000000172060
15 -0.017980607913312
16 0.017980608085371
17 0.0
18 0.0
19 0.024132286543267
20 -0.019633823230879
21 -0.34715956393696
22 -0.80113215203272
23 0.0
24 0.075981801051964
25 0.21419141853596
26 0.019633823030513
27 0.34715954097891
28 0.80113214832717
29 0.0
30 -0.19729219829587
31 0.11281393339804
 Sym=     11.1
 Ene=       1.3105
 Spin= Alpha
 Occup=    0.000000
1 0.099742191515728
2 0.20421067647185
3 -1.48624480780092
4 3.19028729866864
5 0.0
6 -0.026283034467418
7 -0.009750313494541
8 0.0
9 0.16693022603408
10 0.061926739040698
11 0.0
12 0.55110347100823
13 0.20444491001049
14 -0.035644229568972
15 0.025639339370834
16 0.010004890198138
17 0.0
18 0.0
19 0.007765996874875
20 0.008823564155258
21 -0.88715486748426
22 -0.35674544375813
23 0.0
24 0.28202466746003
25 0.30075196310162
26 0.008823563248193
27 -0.88715487047393
28 -0.35674545753400
29 0.0
30 0.40993789479861
31 -0.044052018701159
 Sym=     12.1
 Ene=       1.4982
 Spin= Alpha
 Occup=    0.000000
1 -0.033436904005118
2 -0.069325849507371
3 0.58498289776535
4 -2.05780362931530
5 0.0
6 -0.013921405020252
7 -0.005164475796415
8 0.0
9 -0.11314563557822
10 -0.041974060365262
11 0.0
12 -1.16585697945515
13 -0.43250233175678
14 -0.008602966377285
15 0.089326409236730
16 -0.080723442859445
17 0.0
18 0.0
19 0.084467745906064
20 -0.084223378112502
21 1.20386887802482
22 -0.029171553375987
23 0.0
24 0.60919296331957
25 -0.41193281729797
26 -0.084223378054535
27 1.20386888472941
28 -0.029171551603358
29 0.0
30 0.19314188382692
31 0.70957798300434
 Sym=      3.2
 Ene=       1.5159
 Spin= Alpha
 Occup=    0.000000
1 0.0
2 0.0
3 0.0
4 0.0
5 -0.000000000550946
6 0.0
7 0.0
8 -0.000000000566361
9 0.0
10 0.0
11 -0.000000007496855
12 0.0
13 0.0
14 0.0
15 0.0
16 0.0
17 -0.042419554203897
18 0.11434651410536
19 0.0
20 0.0
21 0.0
22 0.0
23 0.68970689972937
24 0.0
25 0.0
26 0.0
27 0.0
28 0.0
29 -0.68970688153778
30 0.0
31 0.0
 Sym=      4.2
 Ene=       1.7269
 Spin= Alpha
 Occup=    0.000000
1 0.0
2 0.0
3 0.0
4 0.0
5 -0.052895605117145
6 0.0
7 0.0
8 -0.075165166719871
9 0.0
10 0.0
11 -0.55154643471800
12 0.0
13 0.0
14 0.0
15 0.0
16 0.0
17 0.13638988152963
18 0.050597064167332
19 0.0
20 0.0
21 0.0
22 0.0
23 0.77200392779626
24 0.0
25 0.0
26 0.0
27 0.0
28 0.0
29 0.77200394339519
30 0.0
31 0.0
 Sym=     13.1
 Ene=       1.9304
 Spin= Alpha
 Occup=    0.000000
1 -0.000000000069953
2 -0.000000000156988
3 0.000000001131993
4 -0.000000004928553
5 0.0
6 -0.005272613832382
7 0.014212902714273
8 0.0
9 -0.009545813597689
10 0.025731776320935
11 0.0
12 0.33013588988400
13 -0.88991712365284
14 -0.000000000056035
15 0.044698117928670
16 -0.044698117872635
17 0.0
18 0.0
19 -0.059990615535552
20 -0.19090733473166
21 0.78720449651613
22 -0.16049902242382
23 0.0
24 -0.77796590807397
25 0.22423725100610
26 0.19090733079915
27 -0.78720448583804
28 0.16049902031657
29 0.0
30 0.44349441088423
31 0.67736697384240
 Sym=     14.1
 Ene=       2.2775
 Spin= Alpha
 Occup=    0.000000
1 0.000000000583335
2 0.000000001108819
3 -0.000000004626712
4 0.000000000232255
5 0.0
6 0.061399068949747
7 -0.16550786112189
8 0.0
9 0.16278368164277
10 -0.43880108914204
11 0.0
12 -0.009432887511935
13 0.025427379704214
14 -0.000000004834451
15 -0.14267011991693
16 0.14267012475138
17 0.0
18 0.0
19 0.19148163559276
20 0.71315276000245
21 -0.74249090305790
22 0.54210910390445
23 0.0
24 -0.35138799211213
25 -0.39616270464549
26 -0.71315272770370
27 0.74249086716840
28 -0.54210908936168
29 0.0
30 0.52474513679545
31 -0.071140296668828
 Sym=     15.1
 Ene=       2.3979
 Spin= Alpha
 Occup=    0.000000
1 0.024145815377725
2 0.042089570612030
3 -0.14352527981243
4 0.41807779061986
5 0.0
6 -0.15061703704337
7 -0.055874964261515
8 0.0
9 -0.14936897789752
10 -0.055411958502375
11 0.0
12 0.30915737393009
13 0.11468927132158
14 -0.29203580413562
15 0.093279743973218
16 0.19875606016240
17 0.0
18 0.0
19 -0.052392563622660
20 0.94232193414742
21 -1.34182813585566
22 0.43146856502803
23 0.0
24 0.029236599134614
25 -0.17416284241332
26 0.94232195500344
27 -1.34182815166993
28 0.43146858080134
29 0.0
30 -0.091424693165211
31 0.15109270858996
 Sym=     16.1
 Ene=       2.6102
 Spin= Alpha
 Occup=    0.000000
1 -0.060073463881766
2 -0.14044283720145
3 1.00828338245681
4 1.83750343610574
5 0.0
6 0.037144114935749
7 0.013779491672830
8 0.0
9 0.67586090100547
10 0.25072667016827
11 0.0
12 0.68754689139594
13 0.25506186359987
14 0.051514644506446
15 -0.042051257215221
16 -0.009463387291226
17 0.0
18 0.0
19 -0.016187152622985
20 0.43167476901601
21 -1.90342870389367
22 0.21676603735497
23 0.0
24 0.30188000213351
25 1.13815485775557
26 0.43167474316596
27 -1.90342863144434
28 0.21676601854831
29 0.0
30 0.97113663560893
31 -0.66589906712741
 Sym=     17.1
 Ene=       2.7685
 Spin= Alpha
 Occup=    0.000000
1 0.000000000863086
2 0.000000002052625
3 -0.000000015446902
4 -0.000000029137908
5 0.0
6 -0.005242448321959
7 0.014131587680002
8 0.0
9 -0.33746308162153
10 0.90966831882419
11 0.0
12 -0.25470683757638
13 0.68658988220668
14 -0.000000000031822
15 -0.13458147525713
16 0.13458147528895
17 0.0
18 0.0
19 0.18062563427398
20 0.72892256632858
21 -2.13095550124134
22 0.50209668033954
23 0.0
24 0.31443591508248
25 1.13016884884305
26 -0.72892258616563
27 2.13095556745491
28 -0.50209668936817
29 0.0
30 -0.97544634387010
31 0.65165641740473
 Sym=      5.2
 Ene=       3.5053
 Spin= Alpha
 Occup=    0.000000
1 0.0
2 0.0
3 0.0
4 0.0
5 0.023843722802798
6 0.0
7 0.0
8 -0.009420066838923
9 0.0
10 0.0
11 0.27522928362218
12 0.0
13 0.0
14 0.0
15 0.0
16 0.0
17 0.97256968088373
18 0.36079782922419
19 0.0
20 0.0
21 0.0
22 0.0
23 -0.36683698043305
24 0.0
25 0.0
26 0.0
27 0.0
28 0.0
29 -0.36683697812370
30 0.0
31 0.0
 Sym=      6.2
 Ene=       3.5721
 Spin= Alpha
 Occup=    0.000000
1 0.0
2 0.0
3 0.0
4 0.0
5 -0.000000000610701
6 0.0
7 0.0
8 0.000000000421044
9 0.0
10 0.0
11 -0.000000001389733
12 0.0
13 0.0
14 0.0
15 0.0
16 0.0
17 -0.36870305779645
18 0.99387908286556
19 0.0
20 0.0
21 0.0
22 0.0
23 -0.35117594554638
24 0.0
25 0.0
26 0.0
27 0.0
28 0.0
29 0.35117594931899
30 0.0
31 0.0
 Sym=     18.1
 Ene=       3.7381
 Spin= Alpha
 Occup=    0.000000
1 0.002617920085007
2 0.005334500960448
3 0.029346191000388
4 -0.86147627304609
5 0.0
6 -0.055373028449884
7 -0.020541940428400
8 0.0
9 -0.047384044319677
10 -0.017578236218799
11 0.0
12 -0.63437064215024
13 -0.23533485812722
14 0.47286361616734
15 -0.87853395569387
16 0.40567033952653
17 0.0
18 0.0
19 -0.63789435919515
20 0.027082024332607
21 0.57235396280593
22 -0.028385966547637
23 0.0
24 0.36573046351870
25 -0.31670365435666
26 0.027082024104101
27 0.57235396377988
28 -0.028385967211028
29 0.0
30 0.070691869901672
31 0.47860488666821
 Sym=     19.1
 Ene=       4.0353
 Spin= Alpha
 Occup=    0.000000
1 -0.024613677205976
2 -0.049670107063200
3 0.18782918508442
4 2.00079312452308
5 0.0
6 0.29746588398554
7 0.11035203454520
8 0.0
9 0.12383541739857
10 0.045939689392479
11 0.0
12 0.83997739732562
13 0.31160956664623
14 -0.99798599193444
15 0.15725414769943
16 0.84073184423501
17 0.0
18 0.0
19 -0.33949938549551
20 -0.35224789184288
21 -1.03747335734278
22 -0.059507580580603
23 0.0
24 0.25767071108668
25 0.69294276824948
26 -0.35224789359420
27 -1.03747335682571
28 -0.059507581929567
29 0.0
30 0.64725993531435
31 -0.35723725156588
 Sym=     20.1
 Ene=       4.2823
 Spin= Alpha
 Occup=    0.000000
1 0.000000000001047
2 0.000000000011345
3 -0.000000000069393
4 0.000000003402975
5 0.0
6 -0.16265362933180
7 0.43845050368308
8 0.0
9 0.009756600140722
10 -0.026299971680512
11 0.0
12 -0.32063024145625
13 0.86429360758753
14 -0.000000001466389
15 -0.64893773661903
16 0.64893773808542
17 0.0
18 0.0
19 0.87095782793754
20 -0.44147675278856
21 -0.48386901090780
22 -0.24465196207880
23 0.0
24 0.15618184898209
25 0.55638070294686
26 0.44147675288785
27 0.48386900600877
28 0.24465196241698
29 0.0
30 -0.48126123285730
31 0.31990604906550
 Sym=      7.2
 Ene=       5.3305
 Spin= Alpha
 Occup=    0.000000
1 0.0
2 0.0
3 0.0
4 0.0
5 1.27075925302709
6 0.0
7 0.0
8 -1.37564977541077
9 0.0
10 0.0
11 0.47597958196841
12 0.0
13 0.0
14 0.0
15 0.0
16 0.0
17 -0.031263222502328
18 -0.011597834562670
19 0.0
20 0.0
21 0.0
22 0.0
23 0.065955447016090
24 0.0
25 0.0
26 0.0
27 0.0
28 0.0
29 0.065955447332891
30 0.0
31 0.0
 Sym=     21.1
 Ene=       5.7620
 Spin= Alpha
 Occup=    0.000000
1 0.024084634211266
2 0.045614516436596
3 -0.26313642687446
4 -1.05994915514106
5 0.0
6 1.18062635926168
7 0.43798139202839
8 0.0
9 -1.62554258834493
10 -0.60303363541107
11 0.0
12 0.073196406973252
13 0.027153946479113
14 0.37370748106700
15 -0.11923756296904
16 -0.25446991809796
17 0.0
18 0.0
19 0.067173079445748
20 0.30701663579050
21 0.52193442596044
22 0.014886171676554
23 0.0
24 -0.082072068711358
25 -0.54672294053359
26 0.30701663592328
27 0.52193442620440
28 0.014886172087214
29 0.0
30 -0.41878330963942
31 0.36091874151584
 Sym=     22.1
 Ene=       6.2580
 Spin= Alpha
 Occup=    0.000000
1 -0.000000000017615
2 0.000000000018735
3 -0.000000000217442
4 0.000000000016114
5 0.0
6 0.43635776058682
7 -1.17624968524209
8 0.0
9 -0.71528968887017
10 1.92814096054213
11 0.0
12 0.045514670335663
13 -0.12268973090049
14 0.000000000145365
15 -0.38322713536242
16 0.38322713521705
17 0.0
18 0.0
19 0.51434005871476
20 -0.39809592400530
21 -0.51208218183280
22 0.14557722078307
23 0.0
24 0.25656756874147
25 0.67859259685613
26 0.39809592467986
27 0.51208218126536
28 -0.14557722058291
29 0.0
30 -0.63706462800017
31 0.34707850749079
 Sym=     23.1
 Ene=      51.5750
 Spin= Alpha
 Occup=    0.000000
1 -2.24731788379581
2 2.33737782224879
3 -0.27406480528635
4 0.056461989216281
5 0.0
6 0.018132437898309
7 0.006726658537069
8 0.0
9 -0.072370252556572
10 -0.026847464190633
11 0.0
12 -0.014759156971231
13 -0.005475259854720
14 0.026082115659583
15 -0.005709668923563
16 -0.020372446736020
17 0.0
18 0.0
19 0.007283345247971
20 0.008747095340990
21 0.077727364516353
22 -0.031125809272077
23 0.0
24 -0.022296127620439
25 -0.078343003608423
26 0.008747095336867
27 0.077727364505560
28 -0.031125809267156
29 0.0
30 -0.067996337019975
31 0.044846869153329
 [FREQ]
      0.00
      0.00
      0.00
      0.00
      0.00
      0.00
   1534.55
   3044.72
   4191.23
 [FR-COORD]
O          0.0000000000       -0.1343590000       -0.1296729871
H          0.0000000000        0.3830271441        1.5715779743
H          0.0000000000        1.3673896423       -1.0818779394
 [FR-NORM-COORD]
 Vibration                    1
          0.00000000          0.11498455         -0.06439335
          0.12184917          0.48049150         -0.17555168