
 Working directory              : /tmp/lme/molpro.9oDYJllImD/
 Global scratch directory       : /tmp/lme/molpro.9oDYJllImD/
 Wavefunction directory         : /home/lme/wfu/
 Main file repository           : /tmp/lme/molpro.9oDYJllImD/

 id        : liedlgroup

 Nodes     nprocs
 sv1-c724     1
 GA implementation: MPI file
 GA implementation (serial work in mppx): MPI file

 Using customized tuning parameters: mindgm=1; mindgv=20; mindgc=4; mindgr=1; noblas=0; minvec=7
 default implementation of scratch files=df  


 Variables initialized (1042), CPU time= 0.00 sec
 
                  orient,mass
                  geometry=/home/lme/Theoretische_Chemie/Nomodeco/deuterium_calculations/h2o/h2o.xyz
 Including file /home/lme/Theoretische_Chemie/Nomodeco/deuterium_calculations/h2o/h2o.xyz
                  mass, H1=2.014;                                                ! Set custom mass for hydrogen
                  basis=6-311g(d,p)
                  {hf
                  start, atden}
                  optg;
                  {frequencies, symm=auto, print=0, analytical}
                  put, molden, hdo.molden
 Commands initialized (847), CPU time= 0.01 sec, 718 directives.
 Default parameters read. Elapsed time= 0.07 sec

 Checking input...
 Passed
1


                                         ***  PROGRAM SYSTEM MOLPRO  ***
                                       Copyright, TTI GmbH Stuttgart, 2015
                                    Version 2024.1 linked Wed Jan 31 11:42:09 2024


 **********************************************************************************************************************************
 LABEL *                                                                                                                                                                 
  (6 PROC) 64 bit serial version                                                         DATE: 30-Sep-24          TIME: 15:16:32  
 **********************************************************************************************************************************

 SHA1:             675817fde4514a4a933b69e420913a90cee4ef91
 **********************************************************************************************************************************

 Memory per process:        32 MW
 Total memory per node:     32 MW

 GA preallocation disabled
 GA check disabled

 Variable memory set to 32.0 MW

 ZCENTRE=MASS


 Geometry recognized as XYZ


 SETTING MASS FOR H1   (Z=  1)   TO   2.014
 SETTING BASIS          =    6-311G(D,P)


 Recomputing integrals since basis changed


 Using spherical harmonics

 Library entry O      S 6-311G               selected for orbital group  1
 Library entry O      P 6-311G               selected for orbital group  1
 Library entry O      D 6-311G*              selected for orbital group  1
 Library entry H      S 6-311G               selected for orbital group  2
 Library entry H      P 6-311G**             selected for orbital group  2


 PROGRAM * SEWARD (Integral evaluation for generally contracted gaussian basis sets)     Author: Roland Lindh, 1990

 Geometry written to block  1 of record 700

 Orientation using atomic masses  
 Molecule type: Asymmetric top
 Symmetry elements: X
 Rotational constants:     196.1924007    274.3799403    688.4889778 GHz  (calculated with average atomic masses)

 Point group  Cs  



 ATOMIC COORDINATES

 NR  ATOM    CHARGE       X              Y              Z

   1  O       8.00    0.000000000   -0.137051091   -0.134841661
   2  H1      1.00    0.000000000    0.377968186    1.600510086
   3  H2      1.00    0.000000000    1.420230670   -1.057643948

 Bond lengths in Bohr (Angstrom)

 1-2  1.810163126  1-3  1.810163126
     ( 0.957897074)     ( 0.957897074)

 Bond angles

  2-1-3  104.11993072

 NUCLEAR CHARGE:                   10
 NUMBER OF PRIMITIVE AOS:          48
 NUMBER OF SYMMETRY AOS:           47
 NUMBER OF CONTRACTIONS:           30   (   23A'  +    7A"  )
 NUMBER OF INNER CORE ORBITALS:     0   (    0A'  +    0A"  )
 NUMBER OF OUTER CORE ORBITALS:     1   (    1A'  +    0A"  )
 NUMBER OF VALENCE ORBITALS:        6   (    5A'  +    1A"  )


 NUCLEAR REPULSION ENERGY    9.18922213

 Eigenvalues of metric

         1 0.179E-01 0.409E-01 0.901E-01 0.982E-01 0.115E+00 0.124E+00 0.146E+00 0.290E+00
         2 0.215E+00 0.453E+00 0.651E+00 0.907E+00 0.119E+01 0.130E+01 0.228E+01


 Contracted 2-electron integrals neglected if value below      1.0D-11
 AO integral compression algorithm  1   Integral accuracy      1.0D-11

     0.524 MB (compressed) written to integral file ( 92.2%)


 NUMBER OF SORTED TWO-ELECTRON INTEGRALS:      61816.     BUFFER LENGTH:  32768
 NUMBER OF SEGMENTS:   1  SEGMENT LENGTH:      61816      RECORD LENGTH: 524288

 Memory used in sort:       0.62 MW

 SORT1 READ       79218. AND WROTE       55476. INTEGRALS IN      1 RECORDS. CPU TIME:     0.00 SEC, REAL TIME:     0.00 SEC
 SORT2 READ       55476. AND WROTE       61816. INTEGRALS IN      2 RECORDS. CPU TIME:     0.01 SEC, REAL TIME:     0.01 SEC

 FILE SIZES:   FILE 1:    30.6 MBYTE,  FILE 4:     4.3 MBYTE,   TOTAL:     34.8 MBYTE

 OPERATOR DM      FOR CENTER  0  COORDINATES:    0.000000    0.000000    0.000000


 **********************************************************************************************************************************
 DATASETS  * FILE   NREC   LENGTH (MB)   RECORD NAMES
              1      19       28.95       500      610      700      900      950      970     1000      129      960     1100   
                                          VAR    BASINP    GEOM    SYMINP    ZMAT    AOBASIS   BASIS     P2S    ABASIS      S 
                                         1400     1410     1200     1210     1080     1600     1650     1300     1700   
                                           T        V       H0       H01     AOSYM     SMH    MOLCAS    ERIS     OPER   

 PROGRAMS   *        TOTAL       INT
 CPU TIMES  *         0.23      0.13
 REAL TIME  *         0.31 SEC
 DISK USED  *        33.56 MB
 **********************************************************************************************************************************


 Program * Restricted Hartree-Fock

 Orbital guess generated from atomic densities.

 Initial occupancy:   4   1

 NELEC=   10   SYM=1   MS2= 0   THRE=1.0D-08   THRD=1.0D-06   THRG=1.0D-06  HFMA2=F  DIIS_START=2   DIIS_MAX=10   DIIS_INCORE=F

 Level shifts:    0.00 (CLOSED)    0.00 (OPEN)    0.30 (GAP_MIN)

 ITER           ETOT              DE          GRAD        DDIFF     DIIS  NEXP   TIME(IT)  TIME(TOT)  DIAG
   1      -76.00706590     -76.00706590     0.00D+00     0.11D+00     0     0       0.00      0.00    start
   2      -76.03684706      -0.02978116     0.24D-01     0.18D-01     1     0       0.00      0.00    diag
   3      -76.04616045      -0.00931339     0.14D-01     0.60D-02     2     0       0.01      0.01    diag
   4      -76.04636888      -0.00020843     0.14D-02     0.11D-02     3     0       0.00      0.01    diag
   5      -76.04638893      -0.00002005     0.39D-03     0.46D-03     4     0       0.00      0.01    diag
   6      -76.04638961      -0.00000068     0.62D-04     0.79D-04     5     0       0.00      0.01    diag
   7      -76.04638963      -0.00000002     0.11D-04     0.14D-04     6     0       0.00      0.01    diag
   8      -76.04638963      -0.00000000     0.13D-05     0.17D-05     7     0       0.00      0.01    fixocc
   9      -76.04638963      -0.00000000     0.12D-06     0.21D-06     8     0       0.00      0.01    diag
  10      -76.04638963      -0.00000000     0.23D-07     0.18D-07     0     0       0.00      0.01    diag/orth

 Final occupancy:   4   1

 !RHF STATE 1.1 Energy                -76.046389626090
  RHF One-electron energy            -123.142663676005
  RHF Two-electron energy              37.907051924839
  RHF Kinetic energy                   76.056851791022
  RHF Nuclear energy                    9.189222125077
  RHF Virial quotient                  -0.999862442835

 !RHF STATE 1.1 Dipole moment           0.00000000     0.79573797     0.31200894
 Dipole moment /Debye                   0.00000000     2.02256418     0.79304763

 Orbital energies:

           1.1          2.1          3.1          4.1          5.1          6.1
    -20.545221    -1.341340    -0.705352    -0.572504     0.150104     0.216984

           1.2          2.2          3.2
     -0.499863     1.003569     1.516151


 HOMO      1.2    -0.499863 =     -13.6020eV
 LUMO      5.1     0.150104 =       4.0845eV
 LUMO-HOMO         0.649967 =      17.6865eV

 Orbitals saved in record  2100.2


 **********************************************************************************************************************************
 DATASETS  * FILE   NREC   LENGTH (MB)   RECORD NAMES
              1      19       28.95       500      610      700      900      950      970     1000      129      960     1100   
                                          VAR    BASINP    GEOM    SYMINP    ZMAT    AOBASIS   BASIS     P2S    ABASIS      S 
                                         1400     1410     1200     1210     1080     1600     1650     1300     1700   
                                           T        V       H0       H01     AOSYM     SMH    MOLCAS    ERIS     OPER   

              2       4        0.42       700     1000      520     2100   
                                         GEOM     BASIS   MCVARS     RHF  

 PROGRAMS   *        TOTAL    HF-SCF       INT
 CPU TIMES  *         0.25      0.02      0.13
 REAL TIME  *         0.32 SEC
 DISK USED  *        33.56 MB
 **********************************************************************************************************************************


 PROGRAM * OPT (Geometry optimization)     Authors: F. Eckert and H.-J. Werner


 BFGS update of hessian

 *** Long output written to logfile /home/lme/Theoretische_Chemie/Nomodeco/deuterium_calculations/h2o/hdo.molpro/run/hdo_1.molpro/hdo_1.log ***


 Geometry optimization using default procedure for command HF-SCF

 Geometry written to block  1 of record 700

 PQS Optimization using delocalized internal coordinates

 Point group c2v. Number of degrees of freedom:    2

 ITER.   ENERGY(OLD)    ENERGY(NEW)      DE          GRADMAX     GRADNORM    GRADRMS     STEPMAX     STEPLEN     STEPRMS   CPU-time
   1   -76.04638963   -76.04700361    -0.00061398  0.02179624  0.02595262  0.01835127  0.04498361  0.04819099  0.03407618      0.10
   2   -76.04700361   -76.04701191    -0.00000830  0.00191641  0.00194412  0.00137470  0.00884073  0.01065144  0.00753170      0.19
   3   -76.04701191   -76.04701203    -0.00000012  0.00022034  0.00022598  0.00015979  0.00093134  0.00113953  0.00080577      0.28

 END OF GEOMETRY OPTIMIZATION.

 Geometry written to block  1 of record 700

 Recomputing wavefunction for reoriented structure

 Current geometry (xyz format, in Angstrom)

    3
 HF-SCF000/6-311G(D,P)  ENERGY=-76.04701203
 O          0.0000000000       -0.0710997209       -0.0686199896
 H          0.0000000000        0.2026892358        0.8316432492
 H          0.0000000000        0.7235914371       -0.5725051505

 **********************************************************************************************************************************


 **********************************************************************************************************************************
 DATASETS  * FILE   NREC   LENGTH (MB)   RECORD NAMES
              1      19       28.95       500      610      700      900      950      970     1000      129      960     1100   
                                          VAR    BASINP    GEOM    SYMINP    ZMAT    AOBASIS   BASIS     P2S    ABASIS      S 
                                         1400     1410     1200     1210     1080     1600     1650     1300     1700   
                                           T        V       H0       H01     AOSYM     SMH    MOLCAS    ERIS     OPER   

              2       4        0.42       700     1000      520     2100   
                                         GEOM     BASIS   MCVARS     RHF  

 PROGRAMS   *        TOTAL      OPTG    HF-SCF       INT
 CPU TIMES  *         0.58      0.33      0.02      0.13
 REAL TIME  *         0.75 SEC
 DISK USED  *        33.91 MB
 **********************************************************************************************************************************


 PROGRAM * HESSIAN

 PROGRAM * MCKINLEY (Hessian of the energy)     Author: A. Bernhardsson, R. Lindh

 Orbitals from record         2100.2

 Number of closed-shell orbitals:  5 (  4  1 )
 Number of occupied orbitals:      5 (  4  1 )

 Number of electrons= 10     Singlet     Space symmetry=1      Wavefunction type: CLOSED          


 McKinley needed      0.16 seconds of CPU time

 Entering CPHF calculation

 CPHF needed  68 iterations for  9 perturbations.  Total CPU time:    0.03 sec


 HF-SCF hessian saved to record  5300.2

 PROGRAM * FREQUENCIES (Calculation of harmonic vibrational spectra for HF-SCF)


 Permanent Dipole Moment [debye]
     1-   3    0.000000    0.000000    0.000000

 Dipole Moment Norm    0.0000000 [debye]

 Dipole Moment Derivatives [debye/ang]
              1             2             3             4             5             6             7             8
    1    0.00000000    0.00000000    0.00000000    0.00000000    0.00000000    0.00000000    0.00000000    0.00000000
    2    0.00000000    0.00000000    0.00000000    0.00000000    0.00000000    0.00000000    0.00000000    0.00000000
    3    0.00000000    0.00000000    0.00000000    0.00000000    0.00000000    0.00000000    0.00000000    0.00000000
              9
    1    0.00000000
    2    0.00000000
    3    0.00000000

 Projecting out rotations and translations

 Force Constants (Second Derivatives of the Energy) in [a.u.]
                             OX1         OY1         OZ1         H1X2        H1Y2    
           OX1           0.0000000
           OY1           0.0000000   0.5688428
           OZ1           0.0000000  -0.0869657   0.7710059
           H1X2          0.0000000   0.0000000   0.0000000   0.0000000
           H1Y2          0.0000000  -0.1062735  -0.1960505   0.0000000   0.0946563
           H1Z2          0.0000000  -0.1311125  -0.5636509   0.0000000   0.1467412
           H2X3          0.0000000   0.0000000   0.0000000   0.0000000   0.0000000
           H2Y3          0.0000000  -0.4625693   0.2830161   0.0000000   0.0116173
           H2Z3          0.0000000   0.2180782  -0.2073551   0.0000000   0.0493093
                             H1Z2        H2X3        H2Y3        H2Z3    
           H1Z2          0.5911813
           H2X3          0.0000000   0.0000000
           H2Y3         -0.0156286   0.0000000   0.4509520
           H2Z3         -0.0275304   0.0000000  -0.2673875   0.2348855


 Atomic Masses
     1-   3   15.999400    2.014000    1.007940

 Mass weighted Second Derivative Matrix
                             OX1         OY1         OZ1         H1X2        H1Y2    
           OX1           0.0000000
           OY1           0.0000000   0.0355540
           OZ1           0.0000000  -0.0054356   0.0481897
           H1X2          0.0000000   0.0000000   0.0000000   0.0000000
           H1Y2          0.0000000  -0.0187216  -0.0345371   0.0000000   0.0469991
           H1Z2          0.0000000  -0.0230974  -0.0992953   0.0000000   0.0728606
           H2X3          0.0000000   0.0000000   0.0000000   0.0000000   0.0000000
           H2Y3          0.0000000  -0.1151881   0.0704761   0.0000000   0.0081538
           H2Z3          0.0000000   0.0543054  -0.0516352   0.0000000   0.0346084
                             H1Z2        H2X3        H2Y3        H2Z3    
           H1Z2          0.2935359
           H2X3          0.0000000   0.0000000
           H2Y3         -0.0109692   0.0000000   0.4473997
           H2Z3         -0.0193226   0.0000000  -0.2652811   0.2330352


 Mass Weighted 2nd Derivative Matrix Eigenvalues
     1-   9    0.000000    0.000000    0.000000    0.000000    0.000000    0.000000    0.089116    0.350823    0.664775

 Mass Weighted 2nd Derivative Matrix Eigenvectors
              1             2             3             4             5             6             7             8
    1    0.00000000    0.00000000    0.00000000    1.00000000    0.00000000    0.00000000    0.00000000    0.00000000
    2    0.45992959    0.74522809   -0.13297402    0.00000000    0.15358369    0.25142452   -0.28552371   -0.09802055
    3   -0.25756855   -0.14544851    0.08168201    0.00000000   -0.09347672    0.87789748   -0.10215527   -0.30820988
    4    0.17292282    0.14862838    0.89230805    0.00000000   -0.38653603   -0.04882162    0.00000000    0.00000000
    5    0.68189176   -0.31665429   -0.04240095    0.00000000    0.04625851    0.31001710    0.51945973    0.25346438
    6   -0.24913499    0.12510741    0.02752743    0.00000000   -0.03066150    0.24432009   -0.18253056    0.90929717
    7   -0.07808867   -0.07050614    0.41871950    0.00000000    0.90172083    0.02246260    0.00000000    0.00000000
    8   -0.08994784    0.41712345   -0.03526758    0.00000000    0.04180841   -0.02432637    0.40328184    0.03224194
    9   -0.38857152    0.32635032    0.01751829    0.00000000   -0.01832135    0.08245553    0.66501764   -0.05738955
              9
    1    0.00000000
    2   -0.19360713
    3    0.14477672
    4    0.00000000
    5   -0.02495558
    6   -0.02740336
    7    0.00000000
    8    0.80663382
    9   -0.53807448

   Low Vibration      Wavenumber
        Nr             [1/cm] 
        1                0.00
        2                0.00
        3                0.00
        4                0.00
        5                0.00
        6                0.00

     Vibration        Wavenumber
        Nr             [1/cm] 
        1             1534.55
        2             3044.72
        3             4191.23

 FREQUENCIES * CALCULATION OF NORMAL MODES FOR HF-SCF


 Atomic Coordinates

  Nr  Atom  Charge       X              Y              Z

   1   O     8.00    0.000000000   -0.134359000   -0.129672987
   2   H1    1.00    0.000000000    0.383027144    1.571577974
   3   H2    1.00    0.000000000    1.367389642   -1.081877939

 Gradient norm at reference geometry: 0.21194D-03

 Normal Modes

                              1 A`        2 A`        3 A` 
 Wavenumbers [cm-1]         1534.55     3044.72     4191.23
 Intensities [km/mol]          0.00        0.00        0.00
 Intensities [relative]        0.00        0.00        0.00
           OX1              0.00000    -0.00000     0.00000
           OY1             -0.07138    -0.02451    -0.04840
           OZ1             -0.02554    -0.07705     0.03619
           H1X2            -0.00000     0.00000    -0.00000
           H1Y2             0.36603     0.17860    -0.01758
           H1Z2            -0.12862     0.64073    -0.01931
           H2X3            -0.00000    -0.00000     0.00000
           H2Y3             0.40169     0.03211     0.80345
           H2Z3             0.66239    -0.05716    -0.53595


 Normal Modes of low/zero frequencies

                                  1           2           3           4           5
 Wavenumbers [cm-1]            0.00        0.00        0.00        0.00        0.00
 Intensities [km/mol]          0.00        0.00        0.00        0.00        0.00
 Intensities [relative]        0.00        0.00        0.00        0.00        0.00
           OX1              0.00000     0.00000    -0.00000     0.25000     0.00000
           OY1              0.11498     0.18631    -0.03324    -0.00000     0.03840
           OZ1             -0.06439    -0.03636     0.02042     0.00000    -0.02337
           H1X2             0.12185     0.10473     0.62876     0.00000    -0.27237
           H1Y2             0.48049    -0.22313    -0.02988    -0.00000     0.03260
           H1Z2            -0.17555     0.08816     0.01940     0.00000    -0.02161
           H2X3            -0.07778    -0.07023     0.41707    -0.00000     0.89816
           H2Y3            -0.08959     0.41548    -0.03513    -0.00000     0.04164
           H2Z3            -0.38704     0.32506     0.01745     0.00000    -0.01825

                                  6
 Wavenumbers [cm-1]            0.00
 Intensities [km/mol]          0.00
 Intensities [relative]        0.00
           OX1              0.00000
           OY1              0.06286
           OZ1              0.21948
           H1X2            -0.03440
           H1Y2             0.21845
           H1Z2             0.17216
           H2X3             0.02237
           H2Y3            -0.02423
           H2Z3             0.08213


 Frequencies dumped to record   5400.2
 Frequency information read from record  5400.2

 Zero point energy:  0.01998069 [H]     4385.25 [1/CM]       52.46 [KJ/MOL]


 **********************************************************************************************************************************
 DATASETS  * FILE   NREC   LENGTH (MB)   RECORD NAMES
              1      19       28.95       500      610      700      900      950      970     1000      129      960     1100   
                                          VAR    BASINP    GEOM    SYMINP    ZMAT    AOBASIS   BASIS     P2S    ABASIS      S 
                                         1400     1410     1200     1210     1080     1600     1650     1300     1700   
                                           T        V       H0       H01     AOSYM     SMH    MOLCAS    ERIS     OPER   

              2       7        0.43       700     1000      520     2100     5300     5450     5400   
                                         GEOM     BASIS   MCVARS     RHF     HESS     NMOD     FREQ   

              4       5        0.15      4100     4000     4200     4300     4400   

 PROGRAMS   *        TOTAL      FREQ      OPTG    HF-SCF       INT
 CPU TIMES  *         0.77      0.19      0.33      0.02      0.13
 REAL TIME  *         0.96 SEC
 DISK USED  *        33.91 MB
 **********************************************************************************************************************************

 Dump information in style MOLDEN to hdo.molden                                                                      

 Molecular orbitals read from record     2100.2  Type=RHF/CANONICAL  
 Occupation numbers read from record     2100.2  Type=RHF/RHF  
 Orbital energies read from record       2100.2  Type=RHF/CANONICAL  
 Redundancy group numbers read from rec  2100.2  Type=RHF/RHF  

 DUMP ORBITAL  1.1 AS ORBITAL    1  occ=    2.0000  eig=  -20.5413  GROUP=   2
 DUMP ORBITAL  2.1 AS ORBITAL    2  occ=    2.0000  eig=   -1.3491  GROUP=   2
 DUMP ORBITAL  3.1 AS ORBITAL    3  occ=    2.0000  eig=   -0.7172  GROUP=   2
 DUMP ORBITAL  4.1 AS ORBITAL    4  occ=    2.0000  eig=   -0.5729  GROUP=   2
 DUMP ORBITAL  1.2 AS ORBITAL    5  occ=    2.0000  eig=   -0.5007  GROUP=   2

 Total charge:      10.000000
 Frequency information read from record  5400.2

 **********************************************************************************************************************************

 HF/6-311G(D,P)//HF/6-311G(D,P) energy=    -76.047012027792

    OPTG(HF-SCF)          HF-SCF
    -76.04701203    -76.04638963
 **********************************************************************************************************************************
 Molpro calculation terminated
