[Molden Format]
[Molpro variables]
_NUMVAR=  1076.000000000000    
_AVOGAD= 0.6022140760000000E+24
_BOLTZ= 0.1380649000000000E-22
_CLIGHTSI=  299792458.0000000    
_JOULE= 0.4359744722207100E-17
_JPCAL=  4.184000000000000    
_PLANCK= 0.6626070150000000E-33
_BOHR= 0.5291772109030000E-10
_ECHARG= 0.1602176634000000E-18
_ENULL= 0.8854187812800001E-11
_MU= 0.1660539066600000E-26
_EMASS= 0.9109383701500001E-30
_AMU2AU=  1822.888486217313    
_CLIGHT=  29979245800.00000    
_EV= 0.3674932217565494E-01
_KJOULE= 0.3808798847133432E-03
_KJOULE/MOL= 0.3808798847133432E-03
_CM= 0.4556335252912009E-05
_CM-1= 0.4556335252912009E-05
_DEB2SI= 0.3335640951981520E-29
_KCAL= 0.1593601437640628E-02
_KCAL/MOL= 0.1593601437640628E-02
_KELVIN= 0.3166811563455608E-05
_HERTZ= 0.1519829846057038E-15
_HZ= 0.1519829846057038E-15
_TOA= 0.5291772109030000    
_TOANG= 0.5291772109030000    
_TORAD= 0.1745329251994330E-01
_TOCM=  219474.6313631965    
_TODEBYE=  2.541746473194078    
_TOE= 0.4803204712570263E-09
_TOEV=  27.21138624598803    
_TOHERTZ=  6579683920501656.    
_TOHZ=  6579683920501656.    
_TOK=  315775.0248040668    
_TOKCAL=  627.5094740630558    
_TOKELVIN=  315775.0248040668    
_TOKJ=  2625.499639479825    
_TOKJOULE=  2625.499639479825    
_TOKG= 0.1660539066600000E-26
_ANG=  1.889726124625770    
_ANGSTROM=  1.889726124625770    
_RPAREF=  0.000000000000000    
_RPADISS=  0.000000000000000    
_IGNORE_UNDEF=  2.000000000000000    
_STRICTCHECK=  0.000000000000000    
!SEWARD=  0.000000000000000    
!MULTI=  0.000000000000000    
!DFMULTI=  0.000000000000000    
!NUMHESS=  0.000000000000000    
_SEW_ONEEL=  0.000000000000000    
_CPPDONE=FALSE
_DKROLL_DONE=  0.000000000000000    
_FNUC_DONE=  0.000000000000000    
_FOCKDONE=TRUE
_GRADONE=FALSE
_HESSDONE=TRUE
_INTDONE=TRUE
_SCFDONE=TRUE
_MODUL_BLOCK=FALSE
_MODUL_SLATER=TRUE
_MODUL_MRCC=FALSE
_MODUL_NBO6=FALSE
_MODUL_NECI=FALSE
_MODUL_AIMS=TRUE
_MODUL_HDF5=FALSE
_MODUL_GECCO=FALSE
_ISWINDOWS=FALSE
_MRCC_EXEC=
_FITC_AO_SAVED=FALSE
_FITC_MO_SAVED=FALSE
_LSTYP=SEWARD
_INTYP=INTS
_GEOMTYP=XYZ
_GRADTYP=ALASKA
_DIRECT=FALSE
_DKHO= -1.000000000000000    
_FNUC=  0.000000000000000    
_SYNCM=  0.000000000000000    
_BASIS=6-311G(D,P)
_ZCENTRE=MASS
_ZORIENT=  1.000000000000000    
_NELEC=  20.00000000000000    
!SPIN=  0.000000000000000    
_OPTCONV= 0.3299184419293390E-01
_QSDSTEP=  0.000000000000000    
_QSDIRC=  0.000000000000000    
_PROGRAM=FREQ
_CPUSTEP=  4.250000000000002    
_SYSSTEP= 0.1300000000000001    
_WALLSTEP=  4.380000000000000    
!DFSCF=  0.000000000000000    
!SCSGRD=  0.000000000000000    
_NCEN=  6.000000000000000    
_CPUTOT=  18.00000000000000    
_DFTEXFAC=  1.000000000000000    
_DMX=-0.5398433994797114E-01
_DMY=-0.7588886199890291E-01
_DMZ=  1.265354237752370    
_DMX_SCF=-0.5398433994797114E-01
_DMY_SCF=-0.7588886199890291E-01
_DMZ_SCF=  1.265354237752370    
_FREQUENCIES= 0.2279063418028635E-04
_HOMO=  10.10000000000000    
_EHOMO=-0.4706405847887068    
_LUMO=  11.10000000000000    
_ELUMO= 0.1334554013017187    
_ENERGY= -152.1029126778380    
_ENERGY_METHOD=HF
_ENERGY_BASIS=6-311G(D,P)
_GEOMETRY_METHOD=HF
_GEOMETRY_BASIS=6-311G(D,P)
_ENUC=  36.51034568334832    
_GRADENERG= -152.1029119736768    
_GRADEXFAC=  9999.000000000000    
_GRADMETHOD=  1.000000000000000    
_NMRMETHOD=  0.000000000000000    
_NMRMAGNET=  0.000000000000000    
_VIRIAL=-0.2556618979181416E-03
!GRID_FREEZE= -1.000000000000000    
!NEESE_INDEX=  0.000000000000000    
_ITERATIONS=  13.00000000000000    
_LASTNELEC=  20.00000000000000    
_LASTSPIN=  0.000000000000000    
_LASTSYM=  1.000000000000000    
_MPP_PROG=  0.000000000000000    
_MSNSTATES=  0.000000000000000    
_RS2PHASE=  0.000000000000000    
_NPROC_MPP=  1.000000000000000    
_NPROC_SMP=  6.000000000000000    
_NUMSTEP=  0.000000000000000    
_OPTCONVMX= 0.2990374425388283E-01
_OPTCONVRMS= 0.9523925062926290E-02
_OPTGRAD= 0.2013321590616133E-03
_OPTGRADMX= 0.1237093856555950E-03
_OPTGRADRMS= 0.5811958811537551E-04
!GMAXLAST= 0.1237093856555950E-03
!DMAXLAST= 0.2990374425388283E-01
!DELAST= 0.1660699069816474E-05
_OPTSTEP=  22.00000000000000    
_ORBITAL=  2100.200000000000    
_PI=  3.141592653589793    
_SEIG_MIN= 0.1412307763097629E-01
_SEWPROP=TRUE
_STATUS=  1.000000000000000    
_SYSTOT=  1.510000000000000    
_VERSION=  2024001.000000000    
_WALLTOT=  19.52000000000000    
_ZPE= 0.4625550252914098E-01
_DATE=18-Sep-24
_LASTORB=0
_OUTPUT=/home/lme/Theoretische_Chemie/Nomodeco/pymolpro_integration/water_dimer/water_dimer_isotopes/Water_Dimer_h6.molpro/run/Water_Dimer_h6_1.molpro/Water_Dimer_h6_1.out
_PGROUP=C1
_TIME=10:56:58
_LIBMOL=/usr/local/molpro/molpro_2024.1.0_sockets/lib/
_VIGRDC=  0.000000000000000    
!VIBCNT=  0.000000000000000    
!SURFREC=  0.000000000000000    
!XSURFREC=  0.000000000000000    
!XPOLYREC=  0.000000000000000    
!ROTREC=  0.000000000000000    
!POLYREC=  0.000000000000000    
!DIPREC=  0.000000000000000    
!DIP4DREC=  0.000000000000000    
!DIPROT=  0.000000000000000    
!DIP4DROT=  0.000000000000000    
!PTREC=  0.000000000000000    
!PT4DREC=  0.000000000000000    
!VSCFREC=  0.000000000000000    
!VCIREC=  0.000000000000000    
!PVCIREC=  0.000000000000000    
!VMP2REC=  0.000000000000000    
!VMCSCFREC=  0.000000000000000    
!VMRCIREC=  0.000000000000000    
!VIBSTATEREC=  0.000000000000000    
!VIBSTATECNT=  0.000000000000000    
!VIBINFO=  0.000000000000000    
!GAREC=  0.000000000000000    
!SCFORB=  21002.00000000000    
!DEFCORE=  2.000000000000000    
!SCORE=  0.000000000000000    
!NEWMOL=  0.000000000000000    
!NEWSYM=  0.000000000000000    
_SLFILES=slscratch
_NGSSTO=  9.000000000000000    
_SIN=SIN
_COS=COS
_TAN=TAN
_ACOS=ACOS
_ASIN=ASIN
_ATAN=ATAN
_COSH=COSH
_SINH=SINH
_TANH=TANH
_ABS=ABS
_MOD=MOD
_ERF=ERF
_REFC=REFC
_ERFC=ERFC
_HYPOT=HYPOT
_J0=J0
_J1=J1
_JN=JN
_GAMMA=GAMMA
_LGAMMA=LGAMMA
_Y0=Y0
_Y1=Y1
_YN=YN
_EXP=EXP
_LOG=LOG
_LOG10=LOG10
_SQRT=SQRT
_INT=INT
_NINT=NINT
_MAX=MAX
_MIN=MIN
_COSMO=  0.000000000000000    
_COSMOIT=  0.000000000000000    
_COSMOES=  0.000000000000000    
_COSMOEDS=  0.000000000000000    
_COSMOEC=  0.000000000000000    
_COSMOEDCORR=  0.000000000000000    
_FEPSI=  1.000000000000000    
_SL_IsMM=  0.000000000000000    
_SL_NSYM=  1.000000000000000    
_SL_System_BitSw=  0.000000000000000    
_SL_Unique_atoms=  0.000000000000000    
_SL_GRAD=  0.000000000000000    
_SL_MAXUPD_Hess=  5.000000000000000    
_SL_N_PRINT_COD=  5.000000000000000    
_SL_PRINT_CODES=  0.000000000000000    
_SL_BasType=  0.000000000000000    
_SL_Energy_Pred=  0.000000000000000    
_SL_New_Coords=  0.000000000000000    
_SL_Total_Nuclea=  0.000000000000000    
_SL_Highest_Mltp=  0.000000000000000    
_SL_Ref_Geom=  0.000000000000000    
_SL_Symmetry_ope=  1.000000000000000    
_SL_agrad=  0.000000000000000    
_SL_GrdMax=  0.000000000000000    
_SL_GrdNorm=  0.000000000000000    
_SL_GrdRMS=  0.000000000000000    
_SL_Hss_Q=  0.000000000000000    
_SL_Hss_X=  0.000000000000000    
_SL_BMxOld=  0.000000000000000    
_SL_KtB=  0.000000000000000    
_SL_TROld=  0.000000000000000    
_SL_No_of_Intern=  0.000000000000000    
_SL_Hess=  0.000000000000000    
_SL_K=  0.000000000000000    
!LATTICE= -1.000000000000000    
!NEWLATTICE=  0.000000000000000    
!LATGRAD_VAR=FALSE
!SEW_LATTICE=  1.000000000000000    
!AIC_ONEEL=  0.000000000000000    
!LOCAL=  0.000000000000000    
!SAVEDOM= -1.000000000000000    
!RESTDOM= -1.000000000000000    
!SAVEDOM_HF= -1.000000000000000    
!RESTDOM_HF= -1.000000000000000    
!HESSREC=  5300.200000000000    
!FREQREC=  5400.200000000000    
!NMODREC=  5450.200000000000    
!GTASKS=  0.000000000000000    
!HTASKS=  0.000000000000000    
!SAVEDOM_EOM= -1.000000000000000    
!RESTDOM_EOM= -1.000000000000000    
!GRADSTATE= -1.000000000000000    
!DEBUG=  0.000000000000000    
!CFIT_CPHF=  0.000000000000000    
!RDOMAUX_CPHF=  0.000000000000000    
!THRAO_CPHF= 0.1000000000000000E-11
!THRMO_CPHF= 0.1000000000000000E-11
!THROV_CPHF= 0.1000000000000000E-13
!THRSW_CPHF= 0.1000000000000000E-11
!THRPROD_CPHF= 0.1000000000000000E-11
!THRAOPR_CPHF= 0.1000000000000000E-11
!CFIT_SCFGRD=  0.000000000000000    
!RDOMAUX_SCFGRD=  0.000000000000000    
!THRAO_SCFGRD= 0.1000000000000000E-11
!THRMO_SCFGRD= 0.1000000000000000E-11
!THROV_SCFGRD= 0.1000000000000000E-13
!THRSW_SCFGRD= 0.1000000000000000E-11
!THRPROD_SCFGRD= 0.1000000000000000E-11
!THRAOPR_SCFGRD= 0.1000000000000000E-11
!LOCFIT_SCF=  0.000000000000000    
!LOCFIT_MP2=  0.000000000000000    
_RIDOM=  0.000000000000000    
!CC2_METHOD=  0.000000000000000    
_BASIS2006=FALSE
_SVDDEL= -1.000000000000000    
_SVDDELA= -1.000000000000000    
_SVDDELP= -1.000000000000000    
_SVDDELF= -1.000000000000000    
_SVDDELS= -1.000000000000000    
_SVDDEL_ABS= -1.000000000000000    
_SVDDELA_ABS= -1.000000000000000    
_SVDDELP_ABS= -1.000000000000000    
_SVDDELF_ABS= -1.000000000000000    
_SVDDELS_ABS= -1.000000000000000    
_MAXBASIS=  0.000000000000000    
!OPT_CONICAL=  0.000000000000000    
!CLEARSP_JGRID=  0.000000000000000    
_GRDHYBR=  0.000000000000000    
_STATEGRAD=  1.000000000000000    
_4EXT_NDISKS=  1.000000000000000    
!EMBEDFLAG=  1.000000000000000    
!EMBED=FALSE
!EMBED_F12=FALSE
!EMBEDNUC=  0.000000000000000    
_EMBEDENERGY=  0.000000000000000    
!EMBED_DFC=FALSE
!NUM_VOIDS=  0.000000000000000    
_IBODY=  0.000000000000000    
_EMBE_CORR=  0.000000000000000    
!EMBED_PROJ=FALSE
!EMB_PROJ_ZMU=  1000000.000000000    
!CORRECTION_HF=  0.000000000000000    
!EMBED_AORB=  0.000000000000000    
!EMBED_NACORR=  0.000000000000000    
!EMBED_MP2=FALSE
!EMBED_TRUNC_PERTURBATION=FALSE
!EMBED_FROZEN=  0.000000000000000    
!EMBED_ACTIVE=  0.000000000000000    
_CHANGE_BASIS=FALSE
_RESTORE_BASIS=FALSE
_FIX_EMBED_GUESS=FALSE
_EMBED_SCF=FALSE
_NEOBAS=FALSE
_NEOOVE=FALSE
_PRINEO=FALSE
_HUZINAGA_T=FALSE
_HUZINAGA_F=FALSE
_HUZINAGA=FALSE
_HUZINAGA_CORRECT=FALSE
!FASTLATGRAD=  1.000000000000000    
!FASTVLAMBDA= -1.000000000000000    
!IFORCE= -1.000000000000000    
!USESYM= -1.000000000000000    
_SINDEX=  0.000000000000000    
_AVDOM_OSV=  0.000000000000000    
_AVDOM_PNO=  0.000000000000000    
_AVDOM_PNOCC=  0.000000000000000    
_AVDOM_TNO=  0.000000000000000    
_AVDOM_TNOIT=  0.000000000000000    
_AVDOM_PAO=  0.000000000000000    
_AVDOM_LMO=  0.000000000000000    
_CC2OSV_FLAG=  0.000000000000000    
_EOMCCSD_CONV=FALSE
_TMADC2_FLAG=FALSE
_PROPADC2_FLAG=FALSE
_LEN_VirQ=  0.000000000000000    
_GRDCC2LR_FLAG=FALSE
_GRDADC2_FLAG=FALSE
_RO_VGLOBAL=  0.000000000000000    
_OPT=FALSE
_FREQ=FALSE
_HESS=FALSE
_CMRCC_callName=EMPTY
_CMRCC_callCount=  0.000000000000000    
_GECCO_CIROOT=  1.000000000000000    
_SYM_CATION=  1.000000000000000    
_MON_A=FALSE
_MON_B=FALSE
_MAXGEOM=  100.0000000000000    
!MAXGEOM=  100.0000000000000    
_NCORE=  0.000000000000000    
_NLARGECORE=  0.000000000000000    
GX1= 0.2958804539011193E-01
GY1= 0.5813622840758825E-01
GZ1= -1.578933049600048    
GX2= 0.1626076155740117E-02
GY2= 0.1638062871153399E-01
GZ2=-0.6351943796798973    
GX3=-0.3059101538768255    
GY3=-0.7696809815079735    
GZ3= -1.873003729466517    
GX4=-0.6838153137108426E-01
GY4=-0.5314021815229737E-01
GZ4=  1.396502624710998    
GX5=-0.6224856406907869    
GY5= 0.6029394008447447    
GZ5=  1.783028988203491    
GX6= 0.7719964099205717    
GY6= 0.3556189246856509E-01
GZ6=  1.812166982985639    
O1X1= 0.5591330235030761E-01
O1Y1= 0.1098615496090304    
O1Z1= -2.983751032864248    
H2X2= 0.3072838592133142E-02
H2Y2= 0.3095490201398076E-01
H2Z2= -1.200343413496562    
H3X3=-0.5780864095693264    
H3Y3= -1.454486258383222    
H3Z3= -3.539464079094376    
O4X4=-0.1292223662738546    
O4Y4=-0.1004204585107089    
O4Z4=  2.639007493024832    
H5X5= -1.176327377417790    
H5Y5=  1.139390337342523    
H5Z5=  3.369436459973191    
H6X6=  1.458861783944210    
H6Y6= 0.6720223723897986E-01
H6Z6=  3.424499289932225    
[Atoms] Angs
O     1    8         0.0295880454        0.0581362284       -1.5789330496
H     2    1         0.0016260762        0.0163806287       -0.6351943797
H     3    1        -0.3059101539       -0.7696809815       -1.8730037295
O     4    8        -0.0683815314       -0.0531402182        1.3965026247
H     5    1        -0.6224856407        0.6029394008        1.7830289882
H     6    1         0.7719964099        0.0355618925        1.8121669830
[GTO]
   1 0
 s    6  1.00
  0.8588500000D+04  0.1895150083D-02
  0.1297230000D+04  0.1438590063D-01
  0.2992960000D+03  0.7073200310D-01
  0.8737710000D+02  0.2400010105D+00
  0.2567890000D+02  0.5947970261D+00
  0.3740040000D+01  0.2808020123D+00
 s    3  1.00
  0.4211750000D+02  0.1138890124D+00
  0.9628370000D+01  0.9208111006D+00
  0.2853320000D+01 -0.3274470358D-02
 s    1  1.00
  0.9056610000D+00  0.1000000000D+01
 s    1  1.00
  0.2556110000D+00  0.1000000000D+01
 p    3  1.00
  0.4211750000D+02  0.3651139738D-01
  0.9628370000D+01  0.2371529830D+00
  0.2853320000D+01  0.8197019412D+00
 p    1  1.00
  0.9056610000D+00  0.1000000000D+01
 p    1  1.00
  0.2556110000D+00  0.1000000000D+01
 d    1  1.00
  0.1292000000D+01  0.1000000000D+01
  
   2 0
 s    3  1.00
  0.3386500000D+02  0.2549381454D-01
  0.5094790000D+01  0.1903731086D+00
  0.1158790000D+01  0.8521614860D+00
 s    1  1.00
  0.3258400000D+00  0.1000000000D+01
 s    1  1.00
  0.1027410000D+00  0.1000000000D+01
 p    1  1.00
  0.7500000000D+00  0.1000000000D+01
  
   3 0
 s    3  1.00
  0.3386500000D+02  0.2549381454D-01
  0.5094790000D+01  0.1903731086D+00
  0.1158790000D+01  0.8521614860D+00
 s    1  1.00
  0.3258400000D+00  0.1000000000D+01
 s    1  1.00
  0.1027410000D+00  0.1000000000D+01
 p    1  1.00
  0.7500000000D+00  0.1000000000D+01
  
   4 0
 s    6  1.00
  0.8588500000D+04  0.1895150083D-02
  0.1297230000D+04  0.1438590063D-01
  0.2992960000D+03  0.7073200310D-01
  0.8737710000D+02  0.2400010105D+00
  0.2567890000D+02  0.5947970261D+00
  0.3740040000D+01  0.2808020123D+00
 s    3  1.00
  0.4211750000D+02  0.1138890124D+00
  0.9628370000D+01  0.9208111006D+00
  0.2853320000D+01 -0.3274470358D-02
 s    1  1.00
  0.9056610000D+00  0.1000000000D+01
 s    1  1.00
  0.2556110000D+00  0.1000000000D+01
 p    3  1.00
  0.4211750000D+02  0.3651139738D-01
  0.9628370000D+01  0.2371529830D+00
  0.2853320000D+01  0.8197019412D+00
 p    1  1.00
  0.9056610000D+00  0.1000000000D+01
 p    1  1.00
  0.2556110000D+00  0.1000000000D+01
 d    1  1.00
  0.1292000000D+01  0.1000000000D+01
  
   5 0
 s    3  1.00
  0.3386500000D+02  0.2549381454D-01
  0.5094790000D+01  0.1903731086D+00
  0.1158790000D+01  0.8521614860D+00
 s    1  1.00
  0.3258400000D+00  0.1000000000D+01
 s    1  1.00
  0.1027410000D+00  0.1000000000D+01
 p    1  1.00
  0.7500000000D+00  0.1000000000D+01
  
   6 0
 s    3  1.00
  0.3386500000D+02  0.2549381454D-01
  0.5094790000D+01  0.1903731086D+00
  0.1158790000D+01  0.8521614860D+00
 s    1  1.00
  0.3258400000D+00  0.1000000000D+01
 s    1  1.00
  0.1027410000D+00  0.1000000000D+01
 p    1  1.00
  0.7500000000D+00  0.1000000000D+01


[MO]
 Sym=      1.1
 Ene=     -20.5725
 Spin= Alpha
 Occup=    2.000000
1 -0.000020030902283
2 -0.000024475377766
3 0.000063427016500
4 -0.000234453552547
5 -0.000002299530480
6 -0.000005687520723
7 -0.000010091622285
8 0.000009155238938
9 0.000022693410133
10 0.000037320506670
11 0.000001847510752
12 0.000001005143683
13 -0.000134707164323
14 0.000005164500698
15 -0.000004543894486
16 -0.000000620606213
17 -0.000005490564800
18 -0.000000438427501
19 -0.000001749054323
20 -0.000030617178202
21 0.000157614017063
22 0.000198122593014
23 -0.000002454048499
24 -0.000003464751644
25 0.000030792459921
26 0.000003369088469
27 0.000051910854557
28 -0.000076621875857
29 0.000006399396213
30 0.000015976285043
31 0.000014045141989
32 0.55142844832815
33 0.47167028125482
34 0.005610666913718
35 -0.000540718910483
36 0.000446418227017
37 0.001156233025842
38 0.001160970236639
39 -0.000154362063619
40 -0.000402037078207
41 -0.000448268528840
42 0.000016442208174
43 0.000049061262053
44 0.000162872019044
45 -0.000072795278485
46 0.000031111005701
47 0.000041684272784
48 0.000060386768560
49 -0.000030121859510
50 -0.000065865816396
51 0.000194852414890
52 0.000123913560605
53 0.000055435151443
54 0.000063159878205
55 -0.000028813585085
56 -0.000025757234120
57 0.000194794695608
58 0.000124446522531
59 0.000055036886114
60 -0.000064475043072
61 0.000023027589953
62 -0.000028505455241
 Sym=      2.1
 Ene=     -20.5082
 Spin= Alpha
 Occup=    2.000000
1 0.55142512410631
2 0.47167109112677
3 0.005620088657800
4 -0.000574338080752
5 -0.000557492570097
6 -0.001337183614328
7 0.000912812232178
8 0.000196103662684
9 0.000471267365382
10 -0.000286006506873
11 -0.000029637348114
12 -0.000073137758785
13 -0.000026905732622
14 0.000086096481346
15 -0.000030981785936
16 -0.000055114695410
17 -0.000065762651797
18 -0.000016532723076
19 -0.000045576626894
20 0.000196435101400
21 0.000116869471026
22 0.000236689377421
23 -0.000010513476951
24 -0.000026999082526
25 -0.000059216154559
26 0.000207664594540
27 0.000111890325850
28 0.000042644762177
29 0.000020788063678
30 0.000052302705365
31 0.000055976576209
32 0.000020604644677
33 0.000015692310244
34 0.000018031785621
35 -0.000062911152233
36 0.000000752402017
37 0.000002386004790
38 0.000010613746544
39 -0.000003244250041
40 -0.000009517672931
41 -0.000032035194253
42 -0.000000338738246
43 0.000004275118945
44 0.000087799967828
45 -0.000001435002799
46 0.000002123234896
47 -0.000000688232096
48 0.000001931412966
49 0.000000236511267
50 0.000000760366203
51 -0.000003879433933
52 0.000022713204727
53 -0.000035390762252
54 0.000000746666738
55 -0.000000822280958
56 -0.000011698778611
57 -0.000004015141989
58 0.000023509723235
59 -0.000035990251276
60 -0.000000791416783
61 -0.000000300007698
62 -0.000011830804877
 Sym=      3.1
 Ene=      -1.3786
 Spin= Alpha
 Occup=    2.000000
1 -0.006522047967715
2 -0.010840735933006
3 0.030077412179719
4 0.022613852714621
5 -0.000631251600040
6 -0.001463026208537
7 0.002447704468055
8 -0.001160595952392
9 -0.002734881788513
10 0.003040248660539
11 -0.000395301741769
12 -0.000841730634835
13 0.003260969039627
14 -0.000494002860885
15 0.000043940143835
16 0.000450062717050
17 0.000305583024258
18 -0.000002604114812
19 0.000034676222646
20 0.008543380805529
21 0.006507228301273
22 -0.001460942610462
23 0.000010753014313
24 -0.000030740922612
25 -0.001710495797349
26 0.005215541630579
27 0.003050078598466
28 0.001621300108265
29 0.000444428212434
30 0.001095946883959
31 0.000431168693297
32 -0.11342293521787
33 -0.18947690909511
34 0.53804565524109
35 0.37615598989443
36 0.009521070476723
37 0.024691636052984
38 0.025264934975142
39 0.015911181088390
40 0.041262383093029
41 0.042205577798264
42 0.005526231999580
43 0.014021486848233
44 0.009580329721132
45 0.004346030941796
46 -0.001803452833004
47 -0.002542578108792
48 -0.003627998379557
49 0.002501792245759
50 0.005662821023550
51 0.095534666688998
52 0.078529706696347
53 -0.002866183360613
54 0.018330573571345
55 -0.018420795226005
56 -0.009240462161425
57 0.095539750821371
58 0.078515525302917
59 -0.002851920898227
60 -0.025633429165222
61 -0.000529350294869
62 -0.010159567771723
 Sym=      4.1
 Ene=      -1.3175
 Spin= Alpha
 Occup=    2.000000
1 -0.11316134115912
2 -0.18896819240929
3 0.53522292692125
4 0.37947032012525
5 -0.012047276552814
6 -0.028839945898017
7 0.020950401412578
8 -0.020184464641672
9 -0.048328344511270
10 0.034470701717694
11 -0.006276881860103
12 -0.014961619605351
13 0.013913419339776
14 -0.006606691353235
15 0.002044887591314
16 0.004561803761921
17 0.004888165765927
18 0.000458956604800
19 0.001540638213177
20 0.094052287021724
21 0.075048600315769
22 -0.008495493103410
23 -0.000137852491714
24 -0.001163382945845
25 -0.027878847899409
26 0.097083823769119
27 0.081135971137469
28 0.000491475866159
29 0.009392289743395
30 0.023254291724114
31 0.011034580820243
32 0.007343421346378
33 0.012305146933371
34 -0.035417440081523
35 -0.022595036572694
36 -0.000661679437961
37 -0.001827737386142
38 -0.004082472030276
39 -0.001049270261084
40 -0.002819060178342
41 -0.004912360880247
42 -0.000267125941300
43 -0.000980676640123
44 -0.006014007952361
45 -0.000270484551224
46 0.000108707660819
47 0.000161776890406
48 0.000228564398277
49 -0.000204013958260
50 -0.000476041700436
51 -0.006783004839780
52 -0.006946806894023
53 0.002121905892322
54 -0.001391310746613
55 0.001348362954963
56 0.000824211582305
57 -0.006782912080876
58 -0.006975233631227
59 0.002128231512315
60 0.001910881722883
61 0.000008248132009
62 0.000898694390138
 Sym=      5.1
 Ene=      -0.7471
 Spin= Alpha
 Occup=    2.000000
1 -0.000005968844269
2 -0.000010552931449
3 0.000041975455712
4 -0.000042986769959
5 0.001510831544881
6 -0.000636023157964
7 -0.000019638386037
8 0.001875483203619
9 -0.000789512479110
10 -0.000030792564718
11 0.002904259868292
12 -0.001192673124867
13 -0.000044758429704
14 -0.000055328416513
15 0.000059149896819
16 -0.000003821480306
17 -0.000063797578377
18 0.000098503451909
19 -0.000039084711519
20 -0.000022575425533
21 0.000003309863503
22 0.000059700049049
23 0.000985572489838
24 -0.000402911456503
25 0.000011612465722
26 0.000024998695967
27 0.000066364122630
28 -0.000038723535126
29 0.000048124223797
30 -0.000008180885249
31 0.000004185632605
32 0.000003449295270
33 0.000005909987675
34 -0.000018556340383
35 -0.000039837923196
36 0.21193360618190
37 -0.086234162927016
38 0.004426806231600
39 0.32561490556704
40 -0.13249219763756
41 0.006798145232756
42 0.20210875176550
43 -0.082243578865726
44 0.004218535101449
45 0.011985638790383
46 -0.012654580662961
47 0.000668941872578
48 0.015139658731492
49 0.018632572760769
50 -0.007147934536703
51 -0.15074684220915
52 -0.20548262580202
53 -0.049004947551756
54 -0.011190324958833
55 0.023608393025355
56 0.017679701717317
57 0.15074281625768
58 0.20552817788020
59 0.049007146324258
60 -0.023846272085447
61 -0.009355488470353
62 -0.018421186614246
 Sym=      6.1
 Ene=      -0.6906
 Spin= Alpha
 Occup=    2.000000
1 0.000595605632004
2 0.001001060647294
3 -0.002724879717072
4 -0.001217031638440
5 0.043597631789369
6 0.11177461827245
7 0.18484188190468
8 0.066970275122718
9 0.17166995211965
10 0.28300968527807
11 0.040230681347148
12 0.10337838773735
13 0.17749359854270
14 -0.003152832550690
15 -0.019206221058236
16 0.022359053608926
17 -0.008954583598179
18 -0.004262165972350
19 -0.009682007753577
20 0.14721816227079
21 0.19637076586239
22 0.062273569629887
23 0.004095410974297
24 0.009102549685336
25 -0.030465701761953
26 -0.14529900240292
27 -0.20398107037992
28 -0.057779260695125
29 -0.011518599295070
30 -0.028122518579671
31 0.000175440573042
32 -0.004067310710476
33 -0.006951971774892
34 0.021327346528295
35 0.044351526382686
36 -0.004375745378484
37 -0.013652681452032
38 -0.054326958022494
39 -0.006507700883891
40 -0.020449861129720
41 -0.083486615405683
42 -0.003174113403070
43 -0.011455771708149
44 -0.068604150964481
45 0.000013976815149
46 0.000367378594288
47 -0.000381355409437
48 0.000296932272823
49 -0.001275742638365
50 -0.003163971757075
51 -0.018762171280211
52 -0.029341282224847
53 -0.004983252497496
54 -0.005381800735127
55 0.003296650037468
56 -0.003031991588106
57 -0.018707285589675
58 -0.029284719558821
59 -0.004977935031406
60 0.006253385020009
61 -0.001442362376589
62 -0.002789967401564
 Sym=      7.1
 Ene=      -0.6048
 Spin= Alpha
 Occup=    2.000000
1 -0.011237946018674
2 -0.018956469895826
3 0.054357051484948
4 0.10336893325968
5 0.026388633796341
6 0.064593550291999
7 0.016433036876812
8 0.038820080492466
9 0.095147759628529
10 0.027235536268739
11 0.033252945044841
12 0.080999005537315
13 0.014698654421660
14 0.001104424407454
15 -0.005748589163675
16 0.004644164756221
17 -0.003898832288101
18 -0.000086902057806
19 -0.000168760445405
20 0.009617888697871
21 0.009205827191515
22 -0.036119381882488
23 0.002992363864408
24 0.007087202277426
25 -0.004756425815856
26 -0.049509003619741
27 -0.071420120806892
28 -0.015360791547682
29 -0.003103117039437
30 -0.007741380410807
31 -0.005030963065954
32 0.034910773115739
33 0.059345292850542
34 -0.17913639312449
35 -0.30448684051044
36 0.061123586558029
37 0.15917922965005
38 0.17456965118043
39 0.090601510256584
40 0.23610818753636
41 0.26194083442596
42 0.082359223795553
43 0.21452811997123
44 0.23341815934273
45 -0.002352264977093
46 0.001803797894915
47 0.000548467082178
48 0.001915430337625
49 0.005852736840295
50 0.014584444597131
51 0.083719277849564
52 0.12816698148227
53 0.031384701348719
54 0.027164827095371
55 -0.004776534629939
56 0.006570256410484
57 0.083732391229334
58 0.12826819106374
59 0.031371105197227
60 -0.023007604920842
61 0.015629357913533
62 0.005513745101367
 Sym=      8.1
 Ene=      -0.5466
 Spin= Alpha
 Occup=    2.000000
1 -0.032340252386925
2 -0.055021804969282
3 0.16684825999123
4 0.27512482143625
5 0.069988589017264
6 0.16751721212743
7 -0.11490234988814
8 0.10388313963363
9 0.24869263940475
10 -0.16843030789271
11 0.092778320256820
12 0.22165435879688
13 -0.16454330152715
14 0.007796753525892
15 -0.006480835104628
16 -0.001315918421265
17 -0.008242478799630
18 0.003483003576912
19 0.008101314351829
20 -0.069133554585616
21 -0.10322288127901
22 -0.011347361399579
23 0.006864760763423
24 0.017216757614371
25 0.014973112039590
26 -0.079517976924306
27 -0.13428757016355
28 -0.026860023158087
29 -0.003012988254596
30 -0.008049350697381
31 -0.023947614122989
32 -0.009671549548054
33 -0.016514585100533
34 0.051341011260487
35 0.076382860930745
36 -0.053681849129533
37 -0.12876294134885
38 0.061459272319816
39 -0.080677675788597
40 -0.19352037424472
41 0.092246005621493
42 -0.080980127750008
43 -0.19337274610094
44 0.10963875222431
45 0.000236300857116
46 -0.005894229610509
47 0.005657928753393
48 -0.003372471061862
49 -0.001250990019918
50 -0.002816331858654
51 -0.017291123258186
52 -0.030232984083665
53 -0.007158321357912
54 -0.010635284156909
55 -0.009030185199738
56 0.008158870179970
57 -0.017309573446202
58 -0.030219269281095
59 -0.007246810222324
60 0.001012531720864
61 -0.013772769645521
62 0.008403243079618
 Sym=      9.1
 Ene=      -0.5247
 Spin= Alpha
 Occup=    2.000000
1 0.015212916891387
2 0.025926766156442
3 -0.079956353349031
4 -0.13112072779722
5 -0.034777547624983
6 -0.083066830911604
7 0.10178278735736
8 -0.051358906138105
9 -0.12259520156981
10 0.15200064623659
11 -0.048616087555894
12 -0.11663438126462
13 0.13647957576604
14 -0.005103743027099
15 0.001164600786222
16 0.003939142240877
17 0.003635841895845
18 -0.002703399931261
19 -0.006323694560329
20 0.054141663363200
21 0.094414110570389
22 -0.033185439104402
23 -0.004200401594691
24 -0.010847341144403
25 -0.015396263327247
26 0.026994496470332
27 0.044316710187179
28 0.019886679105968
29 0.000048147484807
30 0.000489128951848
31 0.016108983151139
32 0.003414903310736
33 0.005782097369359
34 -0.015776624274426
35 -0.040931701088854
36 -0.065454799337742
37 -0.15105293212737
38 0.19168682382579
39 -0.098275364966229
40 -0.22676204495923
41 0.28862350061181
42 -0.10719438122005
43 -0.24820843085869
44 0.29617381849535
45 -0.001867475645473
46 -0.010328960220452
47 0.012196435865925
48 -0.004812439267612
49 0.000418208599988
50 0.001748281171709
51 0.007376395410406
52 0.015742304228173
53 0.009790067168947
54 -0.003766612434569
55 -0.018444927038756
56 0.018966468328445
57 0.007397280304855
58 0.015761959269305
59 0.009834768217169
60 -0.010862629505218
61 -0.015564679550021
62 0.018821742184056
 Sym=     10.1
 Ene=      -0.4706
 Spin= Alpha
 Occup=    2.000000
1 -0.000000747511815
2 -0.000002643624737
3 0.000040309412126
4 -0.000226277672954
5 0.26872576122733
6 -0.10996244133251
7 0.002980513241667
8 0.40144141913406
9 -0.16425042408407
10 0.004462612875820
11 0.43556164939075
12 -0.17826462399148
13 0.004736971716453
14 -0.008538488258354
15 0.008379900861887
16 0.000158587396467
17 -0.009799685559968
18 0.008490551924957
19 -0.003628861836891
20 -0.000036926092647
21 -0.000027123573196
22 0.000598163741595
23 0.027398393880016
24 -0.011205399935060
25 0.000310704186902
26 -0.000004485371173
27 0.000026379060168
28 -0.000190815146705
29 0.029038547539082
30 -0.011877273600130
31 0.000327506222862
32 -0.000036547488571
33 -0.000063297139671
34 0.000214931132680
35 0.000174743235264
36 -0.002567897745832
37 0.001254295252008
38 -0.000446948061697
39 -0.003711017028448
40 0.001820189316358
41 -0.000727320735226
42 0.007606562899306
43 -0.002773724049525
44 -0.000278745335921
45 0.000219332847880
46 -0.000193135051984
47 -0.000026197795896
48 0.000263347476676
49 -0.000004981852841
50 -0.000001755868969
51 0.000865940786332
52 0.017499349090289
53 -0.017213541920350
54 0.000301545394887
55 -0.001656887165334
56 -0.001168403881697
57 -0.000982563550085
58 -0.017421094145997
59 0.016732963495037
60 0.001372241606954
61 0.001042588941256
62 0.001088854556258
 Sym=     11.1
 Ene=       0.1335
 Spin= Alpha
 Occup=    0.000000
1 0.011626568155670
2 0.019541337215768
3 -0.051800551843951
4 -0.17043777441107
5 0.007457859616548
6 0.017296255825482
7 -0.021340329583468
8 0.009298353421184
9 0.021174638940879
10 -0.039079504372245
11 0.020933520925100
12 0.050727029189873
13 0.004989981541239
14 -0.000292524167225
15 -0.000996096998966
16 0.001288621166191
17 -0.000430731450759
18 0.000542165796292
19 0.001424883723205
20 0.010480364334833
21 -0.058144105842254
22 0.069002432842708
23 0.000568817366566
24 0.001465825001713
25 0.009299630394706
26 0.012801667047498
27 -0.045360428665143
28 0.33282404082006
29 -0.000722255345165
30 -0.002000220463106
31 -0.007181476398130
32 0.034162759460039
33 0.056164972944472
34 -0.11536380799986
35 -0.82003698081134
36 -0.016943342902790
37 -0.043536623734312
38 -0.040718547461170
39 -0.026858482604105
40 -0.068982773112981
41 -0.062084411892910
42 -0.048515348852970
43 -0.12539191091413
44 -0.12820544404339
45 -0.000772167162256
46 -0.000174801471604
47 0.000946968633860
48 0.000465381613163
49 -0.001772370410471
50 -0.004253739262581
51 0.034360751967058
52 -0.049514579076045
53 0.78793724646332