[Molden Format]
[Molpro variables]
_NUMVAR=  1058.000000000000    
_AVOGAD= 0.6022140760000000E+24
_BOLTZ= 0.1380649000000000E-22
_CLIGHTSI=  299792458.0000000    
_JOULE= 0.4359744722207100E-17
_JPCAL=  4.184000000000000    
_PLANCK= 0.6626070150000000E-33
_BOHR= 0.5291772109030000E-10
_ECHARG= 0.1602176634000000E-18
_ENULL= 0.8854187812800001E-11
_MU= 0.1660539066600000E-26
_EMASS= 0.9109383701500001E-30
_AMU2AU=  1822.888486217313    
_CLIGHT=  29979245800.00000    
_EV= 0.3674932217565494E-01
_KJOULE= 0.3808798847133432E-03
_KJOULE/MOL= 0.3808798847133432E-03
_CM= 0.4556335252912009E-05
_CM-1= 0.4556335252912009E-05
_DEB2SI= 0.3335640951981520E-29
_KCAL= 0.1593601437640628E-02
_KCAL/MOL= 0.1593601437640628E-02
_KELVIN= 0.3166811563455608E-05
_HERTZ= 0.1519829846057038E-15
_HZ= 0.1519829846057038E-15
_TOA= 0.5291772109030000    
_TOANG= 0.5291772109030000    
_TORAD= 0.1745329251994330E-01
_TOCM=  219474.6313631965    
_TODEBYE=  2.541746473194078    
_TOE= 0.4803204712570263E-09
_TOEV=  27.21138624598803    
_TOHERTZ=  6579683920501656.    
_TOHZ=  6579683920501656.    
_TOK=  315775.0248040668    
_TOKCAL=  627.5094740630558    
_TOKELVIN=  315775.0248040668    
_TOKJ=  2625.499639479825    
_TOKJOULE=  2625.499639479825    
_TOKG= 0.1660539066600000E-26
_ANG=  1.889726124625770    
_ANGSTROM=  1.889726124625770    
_RPAREF=  0.000000000000000    
_RPADISS=  0.000000000000000    
_IGNORE_UNDEF=  2.000000000000000    
_STRICTCHECK=  0.000000000000000    
!SEWARD=  0.000000000000000    
!MULTI=  0.000000000000000    
!DFMULTI=  0.000000000000000    
!NUMHESS=  0.000000000000000    
_SEW_ONEEL=  0.000000000000000    
_CPPDONE=FALSE
_DKROLL_DONE=  0.000000000000000    
_FNUC_DONE=  0.000000000000000    
_FOCKDONE=TRUE
_GRADONE=FALSE
_HESSDONE=TRUE
_INTDONE=TRUE
_SCFDONE=TRUE
_MODUL_BLOCK=FALSE
_MODUL_SLATER=TRUE
_MODUL_MRCC=FALSE
_MODUL_NBO6=FALSE
_MODUL_NECI=FALSE
_MODUL_AIMS=TRUE
_MODUL_HDF5=FALSE
_MODUL_GECCO=FALSE
_ISWINDOWS=FALSE
_MRCC_EXEC=
_FITC_AO_SAVED=FALSE
_FITC_MO_SAVED=FALSE
_LSTYP=SEWARD
_INTYP=INTS
_GEOMTYP=XYZ
_GRADTYP=ALASKA
_DIRECT=FALSE
_DKHO= -1.000000000000000    
_FNUC=  0.000000000000000    
_SYNCM=  0.000000000000000    
_BASIS=6-311G(D,P)
_ZCENTRE=MASS
_ZORIENT=  1.000000000000000    
_NELEC=  10.00000000000000    
!SPIN=  0.000000000000000    
_OPTCONV= 0.1285750534104922E-04
_QSDSTEP=  0.000000000000000    
_QSDIRC=  0.000000000000000    
_PROGRAM=FREQ
_CPUSTEP= 0.1899999999999999    
_SYSSTEP= 0.2000000000000002E-01
_WALLSTEP= 0.2100000000000000    
!DFSCF=  0.000000000000000    
!SCSGRD=  0.000000000000000    
_NCEN=  3.000000000000000    
_CPUTOT= 0.8599999999999999    
_DFTEXFAC=  1.000000000000000    
_DMX=  0.000000000000000    
_DMY= 0.7885176813564503    
_DMZ= 0.2925228313067298    
_DMX_SCF=  0.000000000000000    
_DMY_SCF= 0.7885176813564503    
_DMZ_SCF= 0.2925228313067298    
_FREQUENCIES= 0.5414375237526325E-04
_HOMO=  1.200000000000000    
_EHOMO=-0.5006662179948588    
_LUMO=  5.100000000000000    
_ELUMO= 0.1525987486112205    
_ENERGY= -76.04701202780772    
_ENERGY_METHOD=HF
_ENERGY_BASIS=6-311G(D,P)
_GEOMETRY_METHOD=HF
_GEOMETRY_BASIS=6-311G(D,P)
_ENUC=  9.351280183812817    
_GRADENERG= -76.04701202778892    
_GRADEXFAC=  9999.000000000000    
_GRADMETHOD=  1.000000000000000    
_NMRMETHOD=  0.000000000000000    
_NMRMAGNET=  0.000000000000000    
_VIRIAL= 0.5992637154452433E-05
!GRID_FREEZE= -1.000000000000000    
!NEESE_INDEX=  0.000000000000000    
_ITERATIONS=  10.00000000000000    
_LASTNELEC=  10.00000000000000    
_LASTSPIN=  0.000000000000000    
_LASTSYM=  1.000000000000000    
_MPP_PROG=  0.000000000000000    
_MSNSTATES=  0.000000000000000    
_RS2PHASE=  0.000000000000000    
_NPROC_MPP=  1.000000000000000    
_NPROC_SMP=  6.000000000000000    
_NUMSTEP=  0.000000000000000    
_OPTCONVMX= 0.1159981366121865E-04
_OPTCONVRMS= 0.9091629215798154E-05
_OPTGRAD= 0.3315649002358617E-05
_OPTGRADMX= 0.3294323752477410E-05
_OPTGRADRMS= 0.2344517893602189E-05
!GMAXLAST= 0.3294323752477410E-05
!DMAXLAST= 0.1159981366121865E-04
!DELAST= 0.2413466404505016E-06
_OPTSTEP=  4.000000000000000    
_ORBITAL=  2100.200000000000    
_PI=  3.141592653589793    
_SEIG_MIN= 0.1696961160926731E-01
_SEWPROP=TRUE
_STATUS=  1.000000000000000    
_SYSTOT= 0.2000000000000000    
_VERSION=  2024001.000000000    
_WALLTOT=  1.070000000000000    
_ZPE= 0.1998072067009337E-01
_DATE=27-Oct-24
_LASTORB=0
_OUTPUT=/home/lme/Theoretische_Chemie/Nomodeco/deuterium_calculations/h2o/hdo_calc.molpro/run/hdo_calc_1.molpro/hdo_calc_1.out
_PGROUP=Cs
_TIME=18:46:04
_LIBMOL=/usr/local/molpro/molpro_2024.1.0_sockets/lib/
_VIGRDC=  0.000000000000000    
!VIBCNT=  0.000000000000000    
!SURFREC=  0.000000000000000    
!XSURFREC=  0.000000000000000    
!XPOLYREC=  0.000000000000000    
!ROTREC=  0.000000000000000    
!POLYREC=  0.000000000000000    
!DIPREC=  0.000000000000000    
!DIP4DREC=  0.000000000000000    
!DIPROT=  0.000000000000000    
!DIP4DROT=  0.000000000000000    
!PTREC=  0.000000000000000    
!PT4DREC=  0.000000000000000    
!VSCFREC=  0.000000000000000    
!VCIREC=  0.000000000000000    
!PVCIREC=  0.000000000000000    
!VMP2REC=  0.000000000000000    
!VMCSCFREC=  0.000000000000000    
!VMRCIREC=  0.000000000000000    
!VIBSTATEREC=  0.000000000000000    
!VIBSTATECNT=  0.000000000000000    
!VIBINFO=  0.000000000000000    
!GAREC=  0.000000000000000    
!SCFORB=  21002.00000000000    
!DEFCORE=  1.000000000000000    
!SCORE=  0.000000000000000    
!NEWMOL=  0.000000000000000    
!NEWSYM=  0.000000000000000    
_SLFILES=slscratch
_NGSSTO=  9.000000000000000    
_SIN=SIN
_COS=COS
_TAN=TAN
_ACOS=ACOS
_ASIN=ASIN
_ATAN=ATAN
_COSH=COSH
_SINH=SINH
_TANH=TANH
_ABS=ABS
_MOD=MOD
_ERF=ERF
_REFC=REFC
_ERFC=ERFC
_HYPOT=HYPOT
_J0=J0
_J1=J1
_JN=JN
_GAMMA=GAMMA
_LGAMMA=LGAMMA
_Y0=Y0
_Y1=Y1
_YN=YN
_EXP=EXP
_LOG=LOG
_LOG10=LOG10
_SQRT=SQRT
_INT=INT
_NINT=NINT
_MAX=MAX
_MIN=MIN
_COSMO=  0.000000000000000    
_COSMOIT=  0.000000000000000    
_COSMOES=  0.000000000000000    
_COSMOEDS=  0.000000000000000    
_COSMOEC=  0.000000000000000    
_COSMOEDCORR=  0.000000000000000    
_FEPSI=  1.000000000000000    
_SL_IsMM=  0.000000000000000    
_SL_NSYM=  2.000000000000000    
_SL_System_BitSw=  0.000000000000000    
_SL_Unique_atoms=  0.000000000000000    
_SL_GRAD=  0.000000000000000    
_SL_MAXUPD_Hess=  5.000000000000000    
_SL_N_PRINT_COD=  5.000000000000000    
_SL_PRINT_CODES=  0.000000000000000    
_SL_BasType=  0.000000000000000    
_SL_Energy_Pred=  0.000000000000000    
_SL_New_Coords=  0.000000000000000    
_SL_Total_Nuclea=  0.000000000000000    
_SL_Highest_Mltp=  0.000000000000000    
_SL_Ref_Geom=  0.000000000000000    
_SL_Symmetry_ope=  1.000000000000000    
_SL_agrad=  0.000000000000000    
_SL_GrdMax=  0.000000000000000    
_SL_GrdNorm=  0.000000000000000    
_SL_GrdRMS=  0.000000000000000    
_SL_Hss_Q=  0.000000000000000    
_SL_Hss_X=  0.000000000000000    
_SL_BMxOld=  0.000000000000000    
_SL_KtB=  0.000000000000000    
_SL_TROld=  0.000000000000000    
_SL_No_of_Intern=  0.000000000000000    
_SL_Hess=  0.000000000000000    
_SL_K=  0.000000000000000    
!LATTICE= -1.000000000000000    
!NEWLATTICE=  0.000000000000000    
!LATGRAD_VAR=FALSE
!SEW_LATTICE=  1.000000000000000    
!AIC_ONEEL=  0.000000000000000    
!LOCAL=  0.000000000000000    
!SAVEDOM= -1.000000000000000    
!RESTDOM= -1.000000000000000    
!SAVEDOM_HF= -1.000000000000000    
!RESTDOM_HF= -1.000000000000000    
!HESSREC=  5300.200000000000    
!FREQREC=  5400.200000000000    
!NMODREC=  5450.200000000000    
!GTASKS=  0.000000000000000    
!HTASKS=  0.000000000000000    
!SAVEDOM_EOM= -1.000000000000000    
!RESTDOM_EOM= -1.000000000000000    
!GRADSTATE= -1.000000000000000    
!DEBUG=  0.000000000000000    
!CFIT_CPHF=  0.000000000000000    
!RDOMAUX_CPHF=  0.000000000000000    
!THRAO_CPHF= 0.1000000000000000E-11
!THRMO_CPHF= 0.1000000000000000E-11
!THROV_CPHF= 0.1000000000000000E-13
!THRSW_CPHF= 0.1000000000000000E-11
!THRPROD_CPHF= 0.1000000000000000E-11
!THRAOPR_CPHF= 0.1000000000000000E-11
!CFIT_SCFGRD=  0.000000000000000    
!RDOMAUX_SCFGRD=  0.000000000000000    
!THRAO_SCFGRD= 0.1000000000000000E-11
!THRMO_SCFGRD= 0.1000000000000000E-11
!THROV_SCFGRD= 0.1000000000000000E-13
!THRSW_SCFGRD= 0.1000000000000000E-11
!THRPROD_SCFGRD= 0.1000000000000000E-11
!THRAOPR_SCFGRD= 0.1000000000000000E-11
!LOCFIT_SCF=  0.000000000000000    
!LOCFIT_MP2=  0.000000000000000    
_RIDOM=  0.000000000000000    
!CC2_METHOD=  0.000000000000000    
_BASIS2006=FALSE
_SVDDEL= -1.000000000000000    
_SVDDELA= -1.000000000000000    
_SVDDELP= -1.000000000000000    
_SVDDELF= -1.000000000000000    
_SVDDELS= -1.000000000000000    
_SVDDEL_ABS= -1.000000000000000    
_SVDDELA_ABS= -1.000000000000000    
_SVDDELP_ABS= -1.000000000000000    
_SVDDELF_ABS= -1.000000000000000    
_SVDDELS_ABS= -1.000000000000000    
_MAXBASIS=  0.000000000000000    
!OPT_CONICAL=  0.000000000000000    
!CLEARSP_JGRID=  0.000000000000000    
_GRDHYBR=  0.000000000000000    
_STATEGRAD=  1.000000000000000    
_4EXT_NDISKS=  1.000000000000000    
!EMBEDFLAG=  1.000000000000000    
!EMBED=FALSE
!EMBED_F12=FALSE
!EMBEDNUC=  0.000000000000000    
_EMBEDENERGY=  0.000000000000000    
!EMBED_DFC=FALSE
!NUM_VOIDS=  0.000000000000000    
_IBODY=  0.000000000000000    
_EMBE_CORR=  0.000000000000000    
!EMBED_PROJ=FALSE
!EMB_PROJ_ZMU=  1000000.000000000    
!CORRECTION_HF=  0.000000000000000    
!EMBED_AORB=  0.000000000000000    
!EMBED_NACORR=  0.000000000000000    
!EMBED_MP2=FALSE
!EMBED_TRUNC_PERTURBATION=FALSE
!EMBED_FROZEN=  0.000000000000000    
!EMBED_ACTIVE=  0.000000000000000    
_CHANGE_BASIS=FALSE
_RESTORE_BASIS=FALSE
_FIX_EMBED_GUESS=FALSE
_EMBED_SCF=FALSE
_NEOBAS=FALSE
_NEOOVE=FALSE
_PRINEO=FALSE
_HUZINAGA_T=FALSE
_HUZINAGA_F=FALSE
_HUZINAGA=FALSE
_HUZINAGA_CORRECT=FALSE
!FASTLATGRAD=  1.000000000000000    
!FASTVLAMBDA= -1.000000000000000    
!IFORCE= -1.000000000000000    
!USESYM= -1.000000000000000    
_SINDEX=  0.000000000000000    
_AVDOM_OSV=  0.000000000000000    
_AVDOM_PNO=  0.000000000000000    
_AVDOM_PNOCC=  0.000000000000000    
_AVDOM_TNO=  0.000000000000000    
_AVDOM_TNOIT=  0.000000000000000    
_AVDOM_PAO=  0.000000000000000    
_AVDOM_LMO=  0.000000000000000    
_CC2OSV_FLAG=  0.000000000000000    
_EOMCCSD_CONV=FALSE
_TMADC2_FLAG=FALSE
_PROPADC2_FLAG=FALSE
_LEN_VirQ=  0.000000000000000    
_GRDCC2LR_FLAG=FALSE
_GRDADC2_FLAG=FALSE
_RO_VGLOBAL=  0.000000000000000    
_OPT=FALSE
_FREQ=FALSE
_HESS=FALSE
_CMRCC_callName=EMPTY
_CMRCC_callCount=  0.000000000000000    
_GECCO_CIROOT=  1.000000000000000    
_SYM_CATION=  2.000000000000000    
_MON_A=FALSE
_MON_B=FALSE
_MAXGEOM=  100.0000000000000    
!MAXGEOM=  100.0000000000000    
_NCORE=  0.000000000000000    
_NLARGECORE=  0.000000000000000    
GX1=  0.000000000000000    
GY1=-0.7109972394050709E-01
GZ1=-0.6862025622268730E-01
GX2=  0.000000000000000    
GY2= 0.2026878865465439    
GZ2= 0.8316428192020263    
GX3=  0.000000000000000    
GY3= 0.7235941819046868    
GZ3=-0.5725000599873185    
O1X1=  0.000000000000000    
O1Y1=-0.1343590057840566    
O1Z1=-0.1296734908625263    
H2X2=  0.000000000000000    
H2Y2= 0.3830245943521882    
H2Z2=  1.571577161803495    
H3X3=  0.000000000000000    
H3Y3=  1.367394829172498    
H3Z3= -1.081868319707856    
[Atoms] Angs
O     1    8         0.0000000000       -0.0710997239       -0.0686202562
H     2    1         0.0000000000        0.2026878865        0.8316428192
H     3    1         0.0000000000        0.7235941819       -0.5725000600
[GTO]
   1 0
 s    6  1.00
  0.8588500000D+04  0.1895150083D-02
  0.1297230000D+04  0.1438590063D-01
  0.2992960000D+03  0.7073200310D-01
  0.8737710000D+02  0.2400010105D+00
  0.2567890000D+02  0.5947970261D+00
  0.3740040000D+01  0.2808020123D+00
 s    3  1.00
  0.4211750000D+02  0.1138890124D+00
  0.9628370000D+01  0.9208111006D+00
  0.2853320000D+01 -0.3274470358D-02
 s    1  1.00
  0.9056610000D+00  0.1000000000D+01
 s    1  1.00
  0.2556110000D+00  0.1000000000D+01
 p    3  1.00
  0.4211750000D+02  0.3651139738D-01
  0.9628370000D+01  0.2371529830D+00
  0.2853320000D+01  0.8197019412D+00
 p    1  1.00
  0.9056610000D+00  0.1000000000D+01
 p    1  1.00
  0.2556110000D+00  0.1000000000D+01
 d    1  1.00
  0.1292000000D+01  0.1000000000D+01
  
   2 0
 s    3  1.00
  0.3386500000D+02  0.2549381454D-01
  0.5094790000D+01  0.1903731086D+00
  0.1158790000D+01  0.8521614860D+00
 s    1  1.00
  0.3258400000D+00  0.1000000000D+01
 s    1  1.00
  0.1027410000D+00  0.1000000000D+01
 p    1  1.00
  0.7500000000D+00  0.1000000000D+01
  
   3 0
 s    3  1.00
  0.3386500000D+02  0.2549381454D-01
  0.5094790000D+01  0.1903731086D+00
  0.1158790000D+01  0.8521614860D+00
 s    1  1.00
  0.3258400000D+00  0.1000000000D+01
 s    1  1.00
  0.1027410000D+00  0.1000000000D+01
 p    1  1.00
  0.7500000000D+00  0.1000000000D+01


[MO]
 Sym=      1.1
 Ene=     -20.5413
 Spin= Alpha
 Occup=    2.000000
1 0.55142989296547
2 0.47167849779576
3 0.005566602897612
4 -0.000465163495778
5 0.0
6 0.001673758897799
7 0.000620927857508
8 0.0
9 -0.000579087996455
10 -0.000214828929031
11 0.0
12 0.000088719228729
13 0.000032912871481
14 0.000115378650293
15 -0.000027458753321
16 -0.000087919896972
17 0.0
18 0.0
19 0.000030032951084
20 0.000208611735885
21 0.000083188911112
22 0.000098883431461
23 0.0
24 0.000014239765448
25 -0.000069685199873
26 0.000208611740759
27 0.000083188912703
28 0.000098883421429
29 0.0
30 -0.000034654091609
31 0.000062111947842
 Sym=      2.1
 Ene=      -1.3491
 Spin= Alpha
 Occup=    2.000000
1 -0.11335954000665
2 -0.18935716174987
3 0.53787734112364
4 0.37190453046286
5 0.0
6 0.035656739642617
7 0.013227871904799
8 0.0
9 0.059202372512294
10 0.021962787304867
11 0.0
12 0.019482055277125
13 0.007227417000236
14 -0.008344511365113
15 0.003103435200849
16 0.005241076164265
17 0.0
18 0.0
19 -0.001061832632058
20 0.096562576122356
21 0.081307885114326
22 -0.002674935621936
23 0.0
24 -0.005214030714230
25 -0.027380841133333
26 0.096562574809604
27 0.081307883837419
28 -0.002674934028304
29 0.0
30 -0.021810211009159
31 0.017355438461510
 Sym=      3.1
 Ene=      -0.7172
 Spin= Alpha
 Occup=    2.000000
1 0.000000000515054
2 0.000000000832549
3 -0.000000001255987
4 -0.000000004965771
5 0.0
6 -0.079085934537824
7 0.21318221196764
8 0.0
9 -0.12133948722466
10 0.32707990870865
11 0.0
12 -0.073661842426161
13 0.19856115413814
14 0.000000000006565
15 -0.016564599632481
16 0.016564599625916
17 0.0
18 0.0
19 0.022231475222010
20 0.15126546584266
21 0.21225549601341
22 0.054487540579611
23 0.0
24 -0.017561526142705
25 -0.026467934130833
26 -0.15126546456276
27 -0.21225549137300
28 -0.054487547003896
29 0.0
30 0.030574820362010
31 -0.008610402578725
 Sym=      4.1
 Ene=      -0.5729
 Spin= Alpha
 Occup=    2.000000
1 0.038140091553160
2 0.064860196238932
3 -0.19645676361123
4 -0.33484861401510
5 0.0
6 0.23972713362305
7 0.088933521635477
8 0.0
9 0.35457402291844
10 0.13153920470218
11 0.0
12 0.31876388219494
13 0.11825442956278
14 -0.012876260716902
15 0.014433251102729
16 -0.001556990385827
17 0.0
18 0.0
19 0.007942850427863
20 0.087465320908246
21 0.14600255695557
22 0.027263579921184
23 0.0
24 0.019305166154312
25 -0.024536441513124
26 0.087465324672107
27 0.14600256699489
28 0.027263585284851
29 0.0
30 -0.001368350944270
31 0.031190608492995
 Sym=      1.2
 Ene=      -0.5007
 Spin= Alpha
 Occup=    2.000000
1 0.0
2 0.0
3 0.0
4 0.0
5 0.29169577907675
6 0.0
7 0.0
8 0.43668228202459
9 0.0
10 0.0
11 0.46587792054959
12 0.0
13 0.0
14 0.0
15 0.0
16 0.0
17 0.016070237150371
18 0.005961706455814
19 0.0
20 0.0
21 0.0
22 0.0
23 0.031532231253996
24 0.0
25 0.0
26 0.0
27 0.0
28 0.0
29 0.031532230448175
30 0.0
31 0.0
 Sym=      5.1
 Ene=       0.1526
 Spin= Alpha
 Occup=    0.000000
1 0.033502774223218
2 0.054636206082436
3 -0.10269999411196
4 -0.85277767543528
5 0.0
6 -0.067115289392882
7 -0.024898307110689
8 0.0
9 -0.10683623271390
10 -0.039633908071152
11 0.0
12 -0.18744077872538
13 -0.069536441426962
14 0.005458389480600
15 -0.004117590443013
16 -0.001340799037587
17 0.0
18 0.0
19 -0.001379318735082
20 0.034136693276189
21 -0.068275355123652
22 0.84442411196556
23 0.0
24 -0.005354850449477
25 0.003479894574458
26 0.034136690861215
27 -0.068275349645670
28 0.84442402239633
29 0.0
30 -0.001789660574371
31 -0.006130350783759
 Sym=      6.1
 Ene=       0.2186
 Spin= Alpha
 Occup=    0.000000
1 -0.000000001006693
2 -0.000000001663374
3 0.000000003341302
4 0.000000022910133
5 0.0
6 0.041819786974304
7 -0.11272843632075
8 0.0
9 0.044333816010146
10 -0.11950518978477
11 0.0
12 0.17233155843041
13 -0.46453291833673
14 -0.000000000135792
15 0.003127038783090
16 -0.003127038647298
17 0.0
18 0.0
19 -0.004196822069977
20 0.023623948785530
21 -0.13011048200312
22 1.58003261765683
23 0.0
24 0.004594808131079
25 0.011146355081714
26 -0.023623950702441
27 0.13011048992180
28 -1.58003266713772
29 0.0
30 -0.010752716236705
31 0.005452759716455
 Sym=      7.1
 Ene=       0.5772
 Spin= Alpha
 Occup=    0.000000
1 0.000000001216093
2 0.000000002123637
3 -0.000000005022907
4 -0.000000048662907
5 0.0
6 0.041856406055250
7 -0.11282716339447
8 0.0
9 0.064607228363230
10 -0.17415376168946
11 0.0
12 0.40727916247505
13 -1.09785231959329
14 -0.000000000191188
15 -0.007353452192287
16 0.007353452383474
17 0.0
18 0.0
19 0.009869123436743
20 0.079808489255457
21 1.48644339771677
22 -0.72178503426598
23 0.0
24 0.011672130211876
25 -0.023634274237271
26 -0.079808483969507
27 -1.48644327065347
28 0.72178499032086
29 0.0
30 0.006566171888708
31 -0.025528472365787
 Sym=      8.1
 Ene=       0.6207
 Spin= Alpha
 Occup=    0.000000
1 0.033596398290696
2 0.059028160255165
3 -0.13501013318756
4 -1.48864351898434
5 0.0
6 -0.090021758158858
7 -0.033396099363161
8 0.0
9 -0.17399973328924
10 -0.064550089332771
11 0.0
12 -1.02049279673631
13 -0.37858045595855
14 -0.001401346846046
15 -0.008372162378175
16 0.009773509224221
17 0.0
18 0.0
19 -0.009013520684497
20 0.062656136637065
21 1.85072043549312
22 -0.60057548562329
23 0.0
24 -0.028997389642963
25 -0.050112508830033
26 0.062656142384192
27 1.85072054550306
28 -0.60057553130882
29 0.0
30 -0.054664705354794
31 0.019075706581411
 Sym=      9.1
 Ene=       0.9975
 Spin= Alpha
 Occup=    0.000000
1 -0.012908021942304
2 -0.024137169914981
3 0.046479310127698
4 0.95095978075269
5 0.0
6 -0.22036040339393
7 -0.081748889308178
8 0.0
9 -0.68995470970738
10 -0.25595810553806
11 0.0
12 1.46981889857060
13 0.54527066749671
14 -0.013062682856991
15 -0.001891462665819
16 0.014954145522810
17 0.0
18 0.0
19 -0.008367738818116
20 -0.033765173168311
21 -0.57477407755711
22 -0.11535569361851
23 0.0
24 0.040335796454690
25 0.17706978133474
26 -0.033765172303781
27 -0.57477406975195
28 -0.11535569571516
29 0.0
30 0.14606101015981
31 -0.10792064310923
 Sym=      2.2
 Ene=       1.0031
 Spin= Alpha
 Occup=    0.000000
1 0.0
2 0.0
3 0.0
4 0.0
5 -0.23940064969671
6 0.0
7 0.0
8 -0.83600700709828
9 0.0
10 0.0
11 1.15633091210674
12 0.0
13 0.0
14 0.0
15 0.0
16 0.0
17 -0.007871715829694
18 -0.002920234490056
19 0.0
20 0.0
21 0.0
22 0.0
23 -0.027705936325352
24 0.0
25 0.0
26 0.0
27 0.0
28 0.0
29 -0.027705937451192
30 0.0
31 0.0
 Sym=     10.1
 Ene=       1.1114
 Spin= Alpha
 Occup=    0.000000
1 0.000000000615605
2 0.000000001337182
3 -0.000000011337940
4 0.000000031001063
5 0.0
6 0.083838718826092
7 -0.22599369704460
8 0.0
9 0.24521092884131
10 -0.66098486054192
11 0.0
12 -0.62693420477577
13 1.68994926458573
14 -0.000000000167214
15 -0.017980790126483
16 0.017980790293697
17 0.0
18 0.0
19 0.024132155732134
20 -0.019633797433343
21 -0.34715744012100
22 -0.80113413769534
23 0.0
24 0.075982097375867
25 0.21419083172518
26 0.019633797159770
27 0.34715741555442
28 0.80113413393647
29 0.0
30 -0.19729290752649
31 0.11281177806170
 Sym=     11.1
 Ene=       1.3105
 Spin= Alpha
 Occup=    0.000000
1 0.099742144860301
2 0.20421057453786
3 -1.48624424874386
4 3.19029314444874
5 0.0
6 -0.026283195979020
7 -0.009750488333450
8 0.0
9 0.16693039267036
10 0.061927531082007
11 0.0
12 0.55110841719655
13 0.20444915542199
14 -0.035644154229830
15 0.025639523889438
16 0.010004630340391
17 0.0
18 0.0
19 0.007766338298995
20 0.008823176499933
21 -0.88715983137056
22 -0.35674459171561
23 0.0
24 0.28202489927471
25 0.30075255477137
26 0.008823175629224
27 -0.88715983485414
28 -0.35674460533735
29 0.0
30 0.40993879535315
31 -0.044049163745166
 Sym=     12.1
 Ene=       1.4982
 Spin= Alpha
 Occup=    0.000000
1 -0.033436840199794
2 -0.069325658495687
3 0.58498105622370
4 -2.05780710101834
5 0.0
6 -0.013921481964332
7 -0.005164565176954
8 0.0
9 -0.11314855166049
10 -0.041975636851631
11 0.0
12 -1.16585555570794
13 -0.43250690258332
14 -0.008602044167815
15 0.089324718639970
16 -0.080722674472155
17 0.0
18 0.0
19 0.084467838414419
20 -0.084222990473096
21 1.20386973567432
22 -0.029170807838999
23 0.0
24 0.60919166180558
25 -0.41193392116792
26 -0.084222990543075
27 1.20386974350751
28 -0.029170806142992
29 0.0
30 0.19313471966859
31 0.70957945556206
 Sym=      3.2
 Ene=       1.5159
 Spin= Alpha
 Occup=    0.000000
1 0.0
2 0.0
3 0.0
4 0.0
5 -0.000000000611898
6 0.0
7 0.0
8 -0.000000000635719
9 0.0
10 0.0
11 -0.000000008223148
12 0.0
13 0.0
14 0.0
15 0.0
16 0.0
17 -0.042419995127756
18 0.11434635476081
19 0.0
20 0.0
21 0.0
22 0.0
23 0.68970718097085
24 0.0
25 0.0
26 0.0
27 0.0
28 0.0
29 -0.68970716097148
30 0.0
31 0.0
 Sym=      4.2
 Ene=       1.7269
 Spin= Alpha
 Occup=    0.000000
1 0.0
2 0.0
3 0.0
4 0.0
5 -0.052895709320853
6 0.0
7 0.0
8 -0.075166006615086
9 0.0
10 0.0
11 -0.55154596821548
12 0.0
13 0.0
14 0.0
15 0.0
16 0.0
17 0.13638966436894
18 0.050597580002944
19 0.0
20 0.0
21 0.0
22 0.0
23 0.77200362750562
24 0.0
25 0.0
26 0.0
27 0.0
28 0.0
29 0.77200364466473
30 0.0
31 0.0
 Sym=     13.1
 Ene=       1.9304
 Spin= Alpha
 Occup=    0.000000
1 -0.000000000098347
2 -0.000000000199211
3 0.000000001526075
4 -0.000000005957422
5 0.0
6 -0.005272540541778
7 0.014212537616408
8 0.0
9 -0.009544269348083
10 0.025727310539294
11 0.0
12 0.33013823889666
13 -0.88991296469681
14 -0.000000000067441
15 0.044698916232675
16 -0.044698916165234
17 0.0
18 0.0
19 -0.059990753577858
20 -0.19090963554090
21 0.78720687214792
22 -0.16050066686462
23 0.0
24 -0.77796798833846
25 0.22423328802516
26 0.19090963117694
27 -0.78720686006987
28 0.16050066471276
29 0.0
30 0.44349336386581
31 0.67736873754733
 Sym=     14.1
 Ene=       2.2775
 Spin= Alpha
 Occup=    0.000000
1 0.000000000632804
2 0.000000001185495
3 -0.000000004795471
4 0.000000000879357
5 0.0
6 0.061399580017970
7 -0.16550728821414
8 0.0
9 0.16278534007042
10 -0.43880038643820
11 0.0
12 -0.009433694189506
13 0.025429255796322
14 -0.000000005412012
15 -0.14267148361534
16 0.14267148902736
17 0.0
18 0.0
19 0.19148048766437
20 0.71315274784391
21 -0.74249288850619
22 0.54210958912734
23 0.0
24 -0.35138697612435
25 -0.39616272991098
26 -0.71315271142886
27 0.74249284712731
28 -0.54210957275972
29 0.0
30 0.52474493001055
31 -0.071136942391326
 Sym=     15.1
 Ene=       2.3979
 Spin= Alpha
 Occup=    0.000000
1 0.024145671500522
2 0.042089216811966
3 -0.14352291298633
4 0.41808866857447
5 0.0
6 -0.15061740527210
7 -0.055875759313421
8 0.0
9 -0.14936699743450
10 -0.055411875999861
11 0.0
12 0.30916292969010
13 0.11469268447081
14 -0.29203658274469
15 0.093281410680754
16 0.19875517206394
17 0.0
18 0.0
19 -0.052392110343984
20 0.94232363424529
21 -1.34183714219022
22 0.43146921559362
23 0.0
24 0.029237112970257
25 -0.17415806180825
26 0.94232365786284
27 -1.34183716087100
28 0.43146923340684
29 0.0
30 -0.091422349928017
31 0.15108871740105
 Sym=     16.1
 Ene=       2.6102
 Spin= Alpha
 Occup=    0.000000
1 -0.060073614806572
2 -0.14044319546060
3 1.00828707757245
4 1.83750121853776
5 0.0
6 0.037144419167416
7 0.013779767035642
8 0.0
9 0.67586343313445
10 0.25073056717276
11 0.0
12 0.68754491234149
13 0.25506413788283
14 0.051514645329504
15 -0.042049188253570
16 -0.009465457075935
17 0.0
18 0.0
19 -0.016185348237951
20 0.43167007271369
21 -1.90342325313963
22 0.21676424753897
23 0.0
24 0.30188083670826
25 1.13815558882132
26 0.43167004526973
27 -1.90342317562764
28 0.21676422763890
29 0.0
30 0.97114286333679
31 -0.66589160737762
 Sym=     17.1
 Ene=       2.7685
 Spin= Alpha
 Occup=    0.000000
1 0.000000000940058
2 0.000000002233619
3 -0.000000016792530
4 -0.000000031057584
5 0.0
6 -0.005242461460855
7 0.014131456502830
8 0.0
9 -0.33746669597343
10 0.90966733309758
11 0.0
12 -0.25470763881478
13 0.68658394421433
14 0.000000000055308
15 -0.13458287242803
16 0.13458287237272
17 0.0
18 0.0
19 0.18062469977948
20 0.72892166503844
21 -2.13095568644423
22 0.50209734557736
23 0.0
24 0.31443033160324
25 1.13017262437854
26 -0.72892168615089
27 2.13095575728885
28 -0.50209735529257
29 0.0
30 -0.97544958729559
31 0.65165542126301
 Sym=      5.2
 Ene=       3.5053
 Spin= Alpha
 Occup=    0.000000
1 0.0
2 0.0
3 0.0
4 0.0
5 0.023843967569627
6 0.0
7 0.0
8 -0.009419975395689
9 0.0
10 0.0
11 0.27523013907453
12 0.0
13 0.0
14 0.0
15 0.0
16 0.0
17 0.97256870794197
18 0.36080172246278
19 0.0
20 0.0
21 0.0
22 0.0
23 -0.36683803168901
24 0.0
25 0.0
26 0.0
27 0.0
28 0.0
29 -0.36683802945720
30 0.0
31 0.0
 Sym=      6.2
 Ene=       3.5721
 Spin= Alpha
 Occup=    0.000000
1 0.0
2 0.0
3 0.0
4 0.0
5 -0.000000000661888
6 0.0
7 0.0
8 0.000000000458056
9 0.0
10 0.0
11 -0.000000001397009
12 0.0
13 0.0
14 0.0
15 0.0
16 0.0
17 -0.36870686020663
18 0.99387761386203
19 0.0
20 0.0
21 0.0
22 0.0
23 -0.35117597863767
24 0.0
25 0.0
26 0.0
27 0.0
28 0.0
29 0.35117598244451
30 0.0
31 0.0
 Sym=     18.1
 Ene=       3.7381
 Spin= Alpha
 Occup=    0.000000
1 0.002617689142871
2 0.005333993866777
3 0.029349033751157
4 -0.86146117658010
5 0.0
6 -0.055371960830292
7 -0.020541786549642
8 0.0
9 -0.047381794588539
10 -0.017577608973303
11 0.0
12 -0.63436421815340
13 -0.23533524992244
14 0.47285470454983
15 -0.87852891275043
16 0.40567420820060
17 0.0
18 0.0
19 -0.63790369793411
20 0.027082947847042
21 0.57234250742914
22 -0.028385275008147
23 0.0
24 0.36573253681775
25 -0.31669654175317
26 0.027082947893601
27 0.57234250792691
28 -0.028385275531341
29 0.0
30 0.070694400062876
31 0.47860139082096
 Sym=     19.1
 Ene=       4.0353
 Spin= Alpha
 Occup=    0.000000
1 -0.024613695165655
2 -0.049670167940511
3 0.18782967419977
4 2.00080178629115
5 0.0
6 0.29746594586061
7 0.11035335851047
8 0.0
9 0.12383705242513
10 0.045940837665678
11 0.0
12 0.83998378705255
13 0.31161561109874
14 -0.99799021160608
15 0.15726520431427
16 0.84072500729181
17 0.0
18 0.0
19 -0.33949577836759
20 -0.35224871878771
21 -1.03747922431696
22 -0.059507241317066
23 0.0
24 0.25766795941151
25 0.69294450852326
26 -0.35224872090088
27 -1.03747922381281
28 -0.059507242919335
29 0.0
30 0.64726173179075
31 -0.35723538808213
 Sym=     20.1
 Ene=       4.2823
 Spin= Alpha
 Occup=    0.000000
1 0.000000000000679
2 0.000000000008513
3 -0.000000000101600
4 0.000000004472259
5 0.0
6 -0.16265570574412
7 0.43845093108141
8 0.0
9 0.009756892389575
10 -0.026300449009631
11 0.0
12 -0.32063326772224
13 0.86429157568754
14 -0.000000001844668
15 -0.64894367837257
16 0.64894368021724
17 0.0
18 0.0
19 0.87095225541103
20 -0.44147747449699
21 -0.48386929249158
22 -0.24465247879077
23 0.0
24 0.15618205604723
25 0.55638153339143
26 0.44147747453654
27 0.48386928628186
28 0.24465247912910
29 0.0
30 -0.48126439108108
31 0.31990284220139
 Sym=      7.2
 Ene=       5.3305
 Spin= Alpha
 Occup=    0.000000
1 0.0
2 0.0
3 0.0
4 0.0
5 1.27075925837666
6 0.0
7 0.0
8 -1.37564984745170
9 0.0
10 0.0
11 0.47597940939082
12 0.0
13 0.0
14 0.0
15 0.0
16 0.0
17 -0.031263488749172
18 -0.011598070043782
19 0.0
20 0.0
21 0.0
22 0.0
23 0.065955691488763
24 0.0
25 0.0
26 0.0
27 0.0
28 0.0
29 0.065955691835621
30 0.0
31 0.0
 Sym=     21.1
 Ene=       5.7620
 Spin= Alpha
 Occup=    0.000000
1 0.024084721974819
2 0.045614675220398
3 -0.26313783956507
4 -1.05995189748978
5 0.0
6 1.18062478669808
7 0.43798597295286
8 0.0
9 -1.62554273829608
10 -0.60304080150826
11 0.0
12 0.073194535568405
13 0.027153572370351
14 0.37370848886725
15 -0.11924020810204
16 -0.25446828076521
17 0.0
18 0.0
19 0.067171997126906
20 0.30701881966967
21 0.52193501476755
22 0.014886475686514
23 0.0
24 -0.082071833321349
25 -0.54672388688843
26 0.30701881993288
27 0.52193501486004
28 0.014886476092436
29 0.0
30 -0.41878652385659
31 0.36091639195058
 Sym=     22.1
 Ene=       6.2580
 Spin= Alpha
 Occup=    0.000000
1 -0.000000000017075
2 0.000000000018466
3 -0.000000000236019
4 0.000000000070447
5 0.0
6 0.43636210401165
7 -1.17624752416129
8 0.0
9 -0.71529706408236
10 1.92813810633408
11 0.0
12 0.045515230980511
13 -0.12268979545355
14 0.000000000135374
15 -0.38323164486413
16 0.38323164472876
17 0.0
18 0.0
19 0.51433811076955
20 -0.39809674858374
21 -0.51208357204688
22 0.14557793104600
23 0.0
24 0.25656704614598
25 0.67859373845748
26 0.39809674930528
27 0.51208357139532
28 -0.14557793084450
29 0.0
30 -0.63706764545020
31 0.34707481461407
 Sym=     23.1
 Ene=      51.5750
 Spin= Alpha
 Occup=    0.000000
1 -2.24731788801421
2 2.33737785595993
3 -0.27406503521589
4 0.056461709609300
5 0.0
6 0.018132502453557
7 0.006726761800085
8 0.0
9 -0.072370568809164
10 -0.026847898073738
11 0.0
12 -0.014759179600218
13 -0.005475332809823
14 0.026082175538626
15 -0.005709848351111
16 -0.020372327187515
17 0.0
18 0.0
19 0.007283310027596
20 0.008747278562599
21 0.077727430386005
22 -0.031125747901041
23 0.0
24 -0.022296135699004
25 -0.078343167514004
26 0.008747278556900
27 0.077727430384740
28 -0.031125747910637
29 0.0
30 -0.067996794917873
31 0.044846465231017
 [FREQ]
      0.00
      0.00
      0.00
      0.00
      0.00
      0.00
   1534.55
   3044.73
   4191.24
 [FR-COORD]
O          0.0000000000       -0.1343590058       -0.1296734909
H          0.0000000000        0.3830245944        1.5715771618
H          0.0000000000        1.3673948292       -1.0818683197
 [FR-NORM-COORD]
 Vibration                    1
         -0.00000000          0.20117490         -0.11362481