Title Card Required                                                     
FOpt      RHF                                                         3-21G               
Number of atoms                            I                3
Info1-9                                    I   N=           9
          14          14           0           0           0         110
           2           1           2
Full Title                                 C   N=           2
Title Card Required     
Route                                      C   N=           3
# opt hf/3-21g geom=connectivity    
Charge                                     I                0
Multiplicity                               I                1
Number of electrons                        I               10
Number of alpha electrons                  I                5
Number of beta electrons                   I                5
Number of basis functions                  I               13
Number of independent functions            I               13
Number of point charges in /Mol/           I                0
Number of translation vectors              I                0
Atomic numbers                             I   N=           3
           8           1           1
Nuclear charges                            R   N=           3
  8.00000000E+00  1.00000000E+00  1.00000000E+00
Current cartesian coordinates              R   N=           9
 -1.31956912E-17  3.69167288E-17  2.15501992E-01 -1.04051420E-17  1.47557962E+00
 -8.62007967E-01 -1.61585084E-16 -1.47557962E+00 -8.62007967E-01
Number of symbols in /Mol/                 I                0
Force Field                                I                0
Atom Types                                 C   N=           3
                                    
Int Atom Types                             I   N=           3
           0           0           0
MM charges                                 R   N=           3
  0.00000000E+00  0.00000000E+00  0.00000000E+00
Integer atomic weights                     I   N=           3
          16           1           1
Real atomic weights                        R   N=           3
  1.59949146E+01  1.00782504E+00  1.00782504E+00
Atom fragment info                         I   N=           3
           0           0           0
Atom residue num                           I   N=           3
           0           0           0
Nuclear spins                              I   N=           3
           0           1           1
Nuclear ZEff                               R   N=           3
 -5.60000000E+00 -1.00000000E+00 -1.00000000E+00
Nuclear ZNuc                               R   N=           3
  8.00000000E+00  1.00000000E+00  1.00000000E+00
Nuclear QMom                               R   N=           3
  0.00000000E+00  0.00000000E+00  0.00000000E+00
Nuclear GFac                               R   N=           3
  0.00000000E+00  2.79284600E+00  2.79284600E+00
MicOpt                                     I   N=           3
          -1          -1          -1
Number of residues                         I                0
Number of secondary structures             I                0
Redundant internal dimensions              I   N=           4
           3           2           1           0
Redundant internal coordinate indices      I   N=          12
           1           2           0           0           1           3
           0           0           2           1           3           0
Redundant internal coordinates             R   N=           3
  1.82711875E+00  1.82711875E+00  1.88013934E+00
ZRed-IntVec                                I   N=           3
           0           0           0
ZRed-FPVec                                 R   N=           3
  0.00000000E+00  0.00000000E+00  0.00000000E+00
ZRed-Constraint1                           R   N=           3
  1.81413708E+00  1.81413708E+00  1.91113554E+00
ZRed-Constraint2                           R   N=           3
  0.00000000E+00  0.00000000E+00  0.00000000E+00
SymInf integers                            I   N=          26
           2           4           1           1           1          -1
          -1           1          -1           1           1           1
          -1           1           0           0           0           0
           0           0           0           0           0           0
           0           0
RotTr to input orientation                 R   N=          12
 -2.14684417E-16  2.26704625E-16 -1.00000000E+00  8.16641557E-01 -5.77145188E-01
 -3.06161700E-16 -5.77145188E-01 -8.16641557E-01 -6.12323400E-17 -4.28318012E+00
  1.69411662E+00  4.97080911E-01
Number of contracted shells                I                7
Number of primitive shells                 I               12
Pure/Cartesian d shells                    I                1
Pure/Cartesian f shells                    I                0
Highest angular momentum                   I                1
Largest degree of contraction              I                3
Shell types                                I   N=           7
           0          -1          -1           0           0           0
           0
Number of primitives per shell             I   N=           7
           3           2           1           2           1           2
           1
Shell to atom map                          I   N=           7
           1           1           1           2           2           3
           3
Primitive exponents                        R   N=          12
  3.22037000E+02  4.84308000E+01  1.04206000E+01  7.40294000E+00  1.57620000E+00
  3.73684000E-01  5.44717800E+00  8.24547240E-01  1.83191580E-01  5.44717800E+00
  8.24547240E-01  1.83191580E-01
Contraction coefficients                   R   N=          12
  5.92393934E-02  3.51499961E-01  7.07657921E-01 -4.04453583E-01  1.22156176E+00
  1.00000000E+00  1.56284979E-01  9.04690877E-01  1.00000000E+00  1.56284979E-01
  9.04690877E-01  1.00000000E+00
P(S=P) Contraction coefficients            R   N=          12
  0.00000000E+00  0.00000000E+00  0.00000000E+00  2.44586107E-01  8.53955373E-01
  1.00000000E+00  0.00000000E+00  0.00000000E+00  0.00000000E+00  0.00000000E+00
  0.00000000E+00  0.00000000E+00
Coordinates of each shell                  R   N=          21
 -1.31956912E-17 -3.82802989E-17  2.15501992E-01 -1.31956912E-17 -3.82802989E-17
  2.15501992E-01 -1.31956912E-17 -3.82802989E-17  2.15501992E-01 -1.04051420E-17
  1.47557962E+00 -8.62007967E-01 -1.04051420E-17  1.47557962E+00 -8.62007967E-01
 -1.61585084E-16 -1.47557962E+00 -8.62007967E-01 -1.61585084E-16 -1.47557962E+00
 -8.62007967E-01
Num ILSW                                   I              100
ILSW                                       I   N=         100
           0           1           0           1           2           0
           0           0           0           0           0          -1
           5           0           0           0           2           0
           0           0           1           0           1           0
           1           0           0           0           0           0
           0           0      100000           0          -1           0
           0           0           0           0           0           0
           0           0           0           1           0           0
           0 -2000000000           1           0           0           0
           0           0           4          52           0           0
           0           0           0           0           0           0
           0           0           0           0           0           1
           0           0           0           0           0           0
           0           0           0           0           0           0
           0           0           0           0           0           0
           0           0           0           0           0           0
           0           0           0           0
Num RLSW                                   I               52
RLSW                                       R   N=          52
  1.00000000E+00  1.00000000E+00  1.00000000E+00  1.00000000E+00  1.00000000E+00
  0.00000000E+00  0.00000000E+00  1.00000000E+00  0.00000000E+00  0.00000000E+00
  0.00000000E+00  0.00000000E+00  1.00000000E+00  0.00000000E+00  0.00000000E+00
  0.00000000E+00  0.00000000E+00  1.00000000E+00  0.00000000E+00  0.00000000E+00
  0.00000000E+00  0.00000000E+00  1.00000000E+00  0.00000000E+00  0.00000000E+00
  0.00000000E+00  0.00000000E+00  1.00000000E+00  0.00000000E+00  0.00000000E+00
  0.00000000E+00  0.00000000E+00  1.00000000E+00  0.00000000E+00  0.00000000E+00
  0.00000000E+00  0.00000000E+00  0.00000000E+00  1.00000000E+00  1.00000000E+00
  0.00000000E+00  1.00000000E+00  0.00000000E+00  0.00000000E+00  0.00000000E+00
  0.00000000E+00  0.00000000E+00  0.00000000E+00  0.00000000E+00  0.00000000E+00
  0.00000000E+00  0.00000000E+00
MxBond                                     I                2
NBond                                      I   N=           3
           2           1           1
IBond                                      I   N=           6
           2           3           1           0           1           0
RBond                                      R   N=           6
  1.00000000E+00  1.00000000E+00  1.00000000E+00  0.00000000E+00  1.00000000E+00
  0.00000000E+00
Virial Ratio                               R      2.002146576938553E+00
SCF Energy                                 R     -7.558595959649004E+01
Total Energy                               R     -7.558595959649004E+01
RMS Force                                  R      1.299790938246976E-04
RMS Density                                R      1.501800398080103E-09
Job Status                                 I                1
Nuclear derivative order                   I                1
External E-field                           R   N=          35
  0.00000000E+00  0.00000000E+00  0.00000000E+00  0.00000000E+00  0.00000000E+00
  0.00000000E+00  0.00000000E+00  0.00000000E+00  0.00000000E+00  0.00000000E+00
  0.00000000E+00  0.00000000E+00  0.00000000E+00  0.00000000E+00  0.00000000E+00
  0.00000000E+00  0.00000000E+00  0.00000000E+00  0.00000000E+00  0.00000000E+00
  0.00000000E+00  0.00000000E+00  0.00000000E+00  0.00000000E+00  0.00000000E+00
  0.00000000E+00  0.00000000E+00  0.00000000E+00  0.00000000E+00  0.00000000E+00
  0.00000000E+00  0.00000000E+00  0.00000000E+00  0.00000000E+00  0.00000000E+00
IOpCl                                      I                0
IROHF                                      I                0
Alpha Orbital Energies                     R   N=          13
 -2.04272183E+01 -1.32081788E+00 -6.85488911E-01 -5.29716369E-01 -4.77196735E-01
  2.61007273E-01  3.60280626E-01  1.20679059E+00  1.27614571E+00  1.78399223E+00
  1.86331912E+00  2.02494352E+00  3.10311916E+00
Alpha MO coefficients                      R   N=         169
  9.83223390E-01  9.57686551E-02  0.00000000E+00  0.00000000E+00 -3.43555076E-03
 -3.76829730E-02  0.00000000E+00  0.00000000E+00  6.42438937E-03  2.45685186E-03
  6.86587127E-03  2.45685186E-03  6.86587127E-03 -2.29790130E-01  2.18027675E-01
  0.00000000E+00  0.00000000E+00 -7.91216416E-02  7.09774673E-01  0.00000000E+00
  0.00000000E+00 -8.98260152E-02  1.14942983E-01  2.05228127E-02  1.14942983E-01
  2.05228127E-02  0.00000000E+00  0.00000000E+00  0.00000000E+00  3.95840340E-01
  0.00000000E+00  0.00000000E+00  0.00000000E+00  3.69705761E-01  0.00000000E+00
  2.32238043E-01  1.82098475E-01 -2.32238043E-01 -1.82098475E-01 -8.57138390E-02
  7.99575595E-02  0.00000000E+00  0.00000000E+00  4.44533767E-01  3.93725481E-01
  0.00000000E+00  0.00000000E+00  5.14983266E-01 -1.27696029E-01 -1.07171172E-01
 -1.27696029E-01 -1.07171172E-01  0.00000000E+00  0.00000000E+00  5.21045778E-01
  0.00000000E+00  0.00000000E+00  0.00000000E+00  6.32335539E-01  0.00000000E+00
  0.00000000E+00  0.00000000E+00  0.00000000E+00  0.00000000E+00  0.00000000E+00
 -1.10325848E-01  3.61620430E-02  0.00000000E+00  0.00000000E+00 -2.07766075E-01
  1.04106849E+00  0.00000000E+00  0.00000000E+00 -4.58366409E-01 -5.26878911E-02
 -8.60293528E-01 -5.26878911E-02 -8.60293528E-01  0.00000000E+00  0.00000000E+00
  0.00000000E+00 -3.04035446E-01  0.00000000E+00  0.00000000E+00  0.00000000E+00
 -7.77920839E-01  0.00000000E+00  3.44783995E-02  1.15536940E+00 -3.44783995E-02
 -1.15536940E+00  0.00000000E+00  0.00000000E+00  0.00000000E+00 -1.99687798E-01
  0.00000000E+00  0.00000000E+00  0.00000000E+00 -4.37022638E-01  0.00000000E+00
  9.67480994E-01 -6.81725465E-01 -9.67480994E-01  6.81725465E-01  6.58091512E-02
 -9.30569501E-02  0.00000000E+00  0.00000000E+00  2.53286168E-01 -9.19121609E-02
  0.00000000E+00  0.00000000E+00  2.85125710E-01  9.75400930E-01 -4.99456895E-01
  9.75400930E-01 -4.99456895E-01  0.00000000E+00  0.00000000E+00  1.02939708E+00
  0.00000000E+00  0.00000000E+00  0.00000000E+00 -9.65038248E-01  0.00000000E+00
  0.00000000E+00  0.00000000E+00  0.00000000E+00  0.00000000E+00  0.00000000E+00
  4.19411662E-02 -1.26356154E-01  0.00000000E+00  0.00000000E+00 -1.01550307E+00
 -1.59675529E-01  0.00000000E+00  0.00000000E+00  1.13182647E+00  2.36883540E-01
  9.25068092E-02  2.36883540E-01  9.25068092E-02  0.00000000E+00  0.00000000E+00
  0.00000000E+00 -1.06603547E+00  0.00000000E+00  0.00000000E+00  0.00000000E+00
  1.41455088E+00  0.00000000E+00 -1.65351588E-01 -4.85307183E-01  1.65351588E-01
  4.85307183E-01  8.67046085E-02 -1.63834075E+00  0.00000000E+00  0.00000000E+00
  1.53690399E-01  1.96846165E+00  0.00000000E+00  0.00000000E+00 -4.62003811E-01
 -2.66003594E-01 -3.58607887E-01 -2.66003594E-01 -3.58607887E-01
Orthonormal basis                          R   N=         169
  5.95328743E-02  1.93976902E-01  0.00000000E+00  0.00000000E+00 -6.61796749E-02
  2.70387423E-01  0.00000000E+00  0.00000000E+00 -1.30709948E-01  1.79386859E-01
  2.43670562E-01  1.79386859E-01  2.43670562E-01  1.65041411E-01  2.94280089E-01
  0.00000000E+00  0.00000000E+00  4.29178371E-01  2.53644509E-01  0.00000000E+00
  0.00000000E+00  4.75995191E-01 -1.19025673E-01 -4.44809560E-03 -1.19025673E-01
 -4.44809560E-03  7.76559608E-01  2.60091787E-01  0.00000000E+00  0.00000000E+00
 -3.99960404E-01  8.01394378E-03  0.00000000E+00  0.00000000E+00 -1.48006574E-01
 -1.41367894E-01 -1.92771727E-01 -1.41367894E-01 -1.92771727E-01  6.35584317E-01
 -6.05229786E-01  0.00000000E+00  0.00000000E+00  5.24904555E-01 -2.44953623E-01
  0.00000000E+00  0.00000000E+00 -7.28918689E-02  2.25135750E-01  1.85152335E-01
  2.25135750E-01  1.85152335E-01  1.06410975E-01 -6.35452677E-01  0.00000000E+00
  0.00000000E+00 -7.66761924E-01  1.90719980E-01  0.00000000E+00  0.00000000E+00
  8.50283463E-01 -2.06072424E-01  4.09753494E-01 -2.06072424E-01  4.09753494E-01
  2.72622393E-02 -4.35381236E-02  0.00000000E+00  0.00000000E+00 -3.07035587E-01
  1.21688462E-01  0.00000000E+00  0.00000000E+00  6.81535169E-01  9.26159534E-01
 -5.94241717E-01  9.26159534E-01 -5.94241717E-01 -5.28808500E-02 -1.34510973E+00
  0.00000000E+00  0.00000000E+00  2.44557789E-01  2.32467960E+00  0.00000000E+00
  0.00000000E+00 -7.75141945E-01 -3.05489515E-01 -6.97721047E-01 -3.05489515E-01
 -6.97721047E-01  0.00000000E+00  0.00000000E+00  5.77587769E-01  0.00000000E+00
  0.00000000E+00  0.00000000E+00  5.77587769E-01  0.00000000E+00  0.00000000E+00
  0.00000000E+00  0.00000000E+00  0.00000000E+00  0.00000000E+00  0.00000000E+00
  0.00000000E+00  9.98768954E-01  0.00000000E+00  0.00000000E+00  0.00000000E+00
 -9.98768954E-01  0.00000000E+00  0.00000000E+00  0.00000000E+00  0.00000000E+00
  0.00000000E+00  0.00000000E+00  0.00000000E+00  0.00000000E+00  0.00000000E+00
  2.73679557E-01  0.00000000E+00  0.00000000E+00  0.00000000E+00  4.19861789E-01
  0.00000000E+00  2.61760704E-01  1.81983113E-01 -2.61760704E-01 -1.81983113E-01
  0.00000000E+00  0.00000000E+00  0.00000000E+00  9.29254735E-01  0.00000000E+00
  0.00000000E+00  0.00000000E+00  6.51186392E-03  0.00000000E+00 -3.32808890E-01
 -2.27547289E-01  3.32808890E-01  2.27547289E-01  0.00000000E+00  0.00000000E+00
  0.00000000E+00  4.14058226E-01  0.00000000E+00  0.00000000E+00  0.00000000E+00
 -9.71718984E-01  0.00000000E+00  9.06741448E-01 -4.94634250E-01 -9.06741448E-01
  4.94634250E-01  0.00000000E+00  0.00000000E+00  0.00000000E+00  5.61760537E-01
  0.00000000E+00  0.00000000E+00  0.00000000E+00 -1.34655933E+00  0.00000000E+00
 -1.30473802E-01  1.31861758E+00  1.30473802E-01 -1.31861758E+00
Total SCF Density                          R   N=          91
  2.05375720E+00  7.44158095E-02  1.26201827E-01  0.00000000E+00  0.00000000E+00
  5.42977406E-01  3.55355023E-18 -2.73984787E-18 -1.54074396E-32  3.13379150E-01
 -4.65984746E-02  3.59282191E-02  5.02608692E-33 -4.91199068E-17  4.07764614E-01
 -4.67795434E-01  3.65246004E-01  2.93345805E-33 -1.81488947E-17  2.37990391E-01
  1.32043969E+00  0.00000000E+00  0.00000000E+00  6.58951526E-01 -2.92741352E-32
 -4.06110232E-33  0.00000000E+00  7.99696467E-01  2.62078350E-18 -3.38704124E-18
 -2.00296714E-32  2.92688909E-01 -5.28303321E-17 -2.11639471E-17 -1.84889275E-32
  2.73364700E-01 -3.43669023E-02  4.44150061E-02  5.81815884E-33 -5.28303321E-17
  4.72025123E-01  2.77527426E-01  6.73780274E-33 -5.74085955E-17  5.46635500E-01
 -2.61036237E-02  3.01715556E-02 -7.70371978E-34  1.83858372E-01 -1.31736230E-01
  6.24277120E-02 -7.70371978E-34  1.71719485E-01 -1.52140809E-01  1.66917420E-01
  2.24415960E-02 -6.87413795E-03 -7.70371978E-34  1.44163845E-01 -9.85771830E-02
 -5.57763500E-02 -7.70371978E-34  1.34645711E-01 -1.13981467E-01  1.16702697E-01
  9.02276818E-02 -2.61036237E-02  3.01715556E-02  7.70371978E-34 -1.83858372E-01
 -1.31736230E-01  6.24277120E-02  7.70371978E-34 -1.71719485E-01 -1.52140809E-01
 -4.88206151E-02 -5.24580776E-02  1.66917420E-01  2.24415960E-02 -6.87413795E-03
  7.70371978E-34 -1.44163845E-01 -9.85771830E-02 -5.57763500E-02  7.70371978E-34
 -1.34645711E-01 -1.13981467E-01 -5.24580776E-02 -4.24117372E-02  1.16702697E-01
  9.02276818E-02
Grdnt Energy                               R     -7.558595959649004E+01
Grdnt NVar                                 I                3
Grdnt IGetFC                               I                0
Internal Forces                            R   N=           3
 -2.41647094E-04 -2.41647094E-04 -1.79348545E-04
Internal Force Constants                   R   N=           6
  5.44213503E-01 -1.05205420E-02  5.44213503E-01  4.47567943E-02  4.47567943E-02
  1.82993641E-01
Mulliken Charges                           R   N=           3
 -7.32879199E-01  3.66439599E-01  3.66439599E-01
Optimization MaxStp                        I              100
Optimization Job offset                    I                0
Optimization Num results per geometry      I                2
Optimization Num geometry variables        I                9
Opt point       1 Results for each geome   R   N=           6
 -7.55858100E+01  0.00000000E+00 -7.55859558E+01  0.00000000E+00 -7.55859596E+01
  0.00000000E+00
Opt point       1 Geometries               R   N=          27
 -1.28223029E-17  2.21961443E-17  2.09404097E-01 -1.37112050E-17  1.48149973E+00
 -8.37616389E-01 -1.61266128E-16 -1.48149973E+00 -8.37616389E-01 -1.31805722E-17
  2.53900434E-16  2.15255079E-01 -9.56601577E-18  1.47264130E+00 -8.61020318E-01
 -1.62545163E-16 -1.47264130E+00 -8.61020318E-01 -1.31956912E-17 -3.82802989E-17
  2.15501992E-01 -1.04051420E-17  1.47557962E+00 -8.62007967E-01 -1.61585084E-16
 -1.47557962E+00 -8.62007967E-01
Opt point       1 Gradient at each geome   R   N=          27
  9.89238844E-16  1.99795176E-15 -1.09189252E-02 -2.12141803E-16 -2.85678676E-03
  5.45946258E-03 -7.77097041E-16  2.85678676E-03  5.45946258E-03  9.54482352E-16
  7.21602417E-16 -1.49279832E-03 -1.82663150E-16 -1.24971574E-03  7.46399162E-04
 -7.71819202E-16  1.24971574E-03  7.46399162E-04  9.50026846E-16 -1.99839936E-15
  1.26467324E-04 -1.86966230E-16  2.53041605E-04 -6.32336622E-05 -7.63060616E-16
 -2.53041605E-04 -6.32336622E-05
Optimization Number of geometries          I   N=           1
           3
ONIOM Charges                              I   N=          16
           0           0           0           0           0           0
           0           0           0           0           0           0
           0           0           0           0
ONIOM Multiplicities                       I   N=          16
           1           0           0           0           0           0
           0           0           0           0           0           0
           0           0           0           0
Atom Layers                                I   N=           3
           1           1           1
Atom Modifiers                             I   N=           3
           0           0           0
Force Field                                I                0
Atom Modified Types                        C   N=           3
                                    
Int Atom Modified Types                    I   N=           3
           0           0           0
Link Atoms                                 I   N=           3
           0           0           0
Atom Modified MM Charges                   R   N=           3
  0.00000000E+00  0.00000000E+00  0.00000000E+00
Link Distances                             R   N=          12
  0.00000000E+00  0.00000000E+00  0.00000000E+00  0.00000000E+00  0.00000000E+00
  0.00000000E+00  0.00000000E+00  0.00000000E+00  0.00000000E+00  0.00000000E+00
  0.00000000E+00  0.00000000E+00
Cartesian Gradient                         R   N=           9
  9.50026846E-16 -1.99842907E-15  1.26467324E-04 -1.86966230E-16  2.53041605E-04
 -6.32336622E-05 -7.63060616E-16 -2.53041605E-04 -6.32336622E-05
Nonadiabatic coupling                      R   N=           9
  0.00000000E+00  0.00000000E+00  0.00000000E+00  0.00000000E+00  0.00000000E+00
  0.00000000E+00  0.00000000E+00  0.00000000E+00  0.00000000E+00
Dipole Moment                              R   N=           3
 -5.11595279E-17  7.92141460E-16 -9.39014588E-01
Quadrupole Moment                          R   N=           6
 -9.47695017E-01  1.18525865E+00 -2.37563630E-01  7.81421570E-17  5.92404897E-17
  4.52254507E-18
QEq coupling tensors                       R   N=          18
  2.06183352E+00  3.42932063E-17 -1.90150490E+00  2.27574527E-17  2.11782771E-14
 -1.60328615E-01  3.15974129E-01 -3.76795831E-18 -3.06036148E-01  1.33298404E-18
  3.83971680E-01 -9.93798073E-03  3.15974129E-01 -8.46531575E-17 -3.06036148E-01
 -6.06535169E-17 -3.83971680E-01 -9.93798073E-03
ClPar MaxAn                                I              200
ClPar NIntPar                              I                4
ClPar NRealPar                             I               16
ClPar NBits                                I               30
ClPar LenBitVec                            I                1
ClPar Read BitMap                          I   N=         200
           0           0           0           0           0           0
           0           0           0           0           0           0
           0           0           0           0           0           0
           0           0           0           0           0           0
           0           0           0           0           0           0
           0           0           0           0           0           0
           0           0           0           0           0           0
           0           0           0           0           0           0
           0           0           0           0           0           0
           0           0           0           0           0           0
           0           0           0           0           0           0
           0           0           0           0           0           0
           0           0           0           0           0           0
           0           0           0           0           0           0
           0           0           0           0           0           0
           0           0           0           0           0           0
           0           0           0           0           0           0
           0           0           0           0           0           0
           0           0           0           0           0           0
           0           0           0           0           0           0
           0           0           0           0           0           0
           0           0           0           0           0           0
           0           0           0           0           0           0
           0           0           0           0           0           0
           0           0           0           0           0           0
           0           0           0           0           0           0
           0           0           0           0           0           0
           0           0           0           0           0           0
           0           0           0           0           0           0
           0           0           0           0           0           0
           0           0           0           0           0           0
           0           0           0           0           0           0
           0           0           0           0           0           0
           0           0
ClPar Default BitMap                       I   N=         200
        2016        2016        2016        2016        2016        2016
        2016        2016        2016        2016        2016        2016
        2016        2016        2016        2016        2016        2016
        2016        2016        2016        2016        2016        2016
        2016        2016        2016        2016        2016        2016
        2016        2016        2016        2016        2016        2016
        2016        2016        2016        2016        2016        2016
        2016        2016        2016        2016        2016        2016
        2016        2016        2016        2016        2016        2016
        2016        2016        2016        2016        2016        2016
        2016        2016        2016        2016        2016        2016
        2016        2016        2016        2016        2016        2016
        2016        2016        2016        2016        2016        2016
        2016        2016        2016        2016        2016        2016
        2016        2016         480         480         480         480
         480         480         480         480         480         480
         480         480         480         480         480         480
         480         480         480         480         480         480
         480         480         480         480         480         480
         480         480         480         480         480         480
         480         480         480         480         480         480
         480         480         480         480         480         480
         480         480         480         480         480         480
         480         480         480         480         480         480
         480         480         480         480         480         480
         480         480         480         480         480         480
         480         480         480         480         480         480
         480         480         480         480         480         480
         480         480         480         480         480         480
         480         480         480         480         480         480
         480         480         480         480         480         480
         480         480         480         480         480         480
         480         480         480         480         480         480
         480         480
ClPar Int Params                           I   N=         800
           0           0           0           0           0           0
           0           0           0           0           0           0
           0           0           0           0           0           0
           0           0           0           0           0           0
           0           0           0           0           0           0
           0           0           0           0           0           0
           0           0           0           0           0           0
           0           0           0           0           0           0
           0           0           0           0           0           0
           0           0           0           0           0           0
           0           0           0           0           0           0
           0           0           0           0           0           0
           0           0           0           0           0           0
           0           0           0           0           0           0
           0           0           0           0           0           0
           0           0           0           0           0           0
           0           0           0           0           0           0
           0           0           0           0           0           0
           0           0           0           0           0           0
           0           0           0           0           0           0
           0           0           0           0           0           0
           0           0           0           0           0           0
           0           0           0           0           0           0
           0           0           0           0           0           0
           0           0           0           0           0           0
           0           0           0           0           0           0
           0           0           0           0           0           0