[Molden Format]
[Molpro variables]
_NUMVAR=  1070.000000000000    
_AVOGAD= 0.6022140760000000E+24
_BOLTZ= 0.1380649000000000E-22
_CLIGHTSI=  299792458.0000000    
_JOULE= 0.4359744722207100E-17
_JPCAL=  4.184000000000000    
_PLANCK= 0.6626070150000000E-33
_BOHR= 0.5291772109030000E-10
_ECHARG= 0.1602176634000000E-18
_ENULL= 0.8854187812800001E-11
_MU= 0.1660539066600000E-26
_EMASS= 0.9109383701500001E-30
_AMU2AU=  1822.888486217313    
_CLIGHT=  29979245800.00000    
_EV= 0.3674932217565494E-01
_KJOULE= 0.3808798847133432E-03
_KJOULE/MOL= 0.3808798847133432E-03
_CM= 0.4556335252912009E-05
_CM-1= 0.4556335252912009E-05
_DEB2SI= 0.3335640951981520E-29
_KCAL= 0.1593601437640628E-02
_KCAL/MOL= 0.1593601437640628E-02
_KELVIN= 0.3166811563455608E-05
_HERTZ= 0.1519829846057038E-15
_HZ= 0.1519829846057038E-15
_TOA= 0.5291772109030000    
_TOANG= 0.5291772109030000    
_TORAD= 0.1745329251994330E-01
_TOCM=  219474.6313631965    
_TODEBYE=  2.541746473194078    
_TOE= 0.4803204712570263E-09
_TOEV=  27.21138624598803    
_TOHERTZ=  6579683920501656.    
_TOHZ=  6579683920501656.    
_TOK=  315775.0248040668    
_TOKCAL=  627.5094740630558    
_TOKELVIN=  315775.0248040668    
_TOKJ=  2625.499639479825    
_TOKJOULE=  2625.499639479825    
_TOKG= 0.1660539066600000E-26
_ANG=  1.889726124625770    
_ANGSTROM=  1.889726124625770    
_RPAREF=  0.000000000000000    
_RPADISS=  0.000000000000000    
_IGNORE_UNDEF=  2.000000000000000    
_STRICTCHECK=  0.000000000000000    
!SEWARD=  0.000000000000000    
!MULTI=  0.000000000000000    
!DFMULTI=  0.000000000000000    
!NUMHESS=  0.000000000000000    
_SEW_ONEEL=  0.000000000000000    
_CPPDONE=FALSE
_DKROLL_DONE=  0.000000000000000    
_FNUC_DONE=  0.000000000000000    
_FOCKDONE=TRUE
_GRADONE=FALSE
_HESSDONE=TRUE
_INTDONE=TRUE
_SCFDONE=TRUE
_MODUL_BLOCK=FALSE
_MODUL_SLATER=TRUE
_MODUL_MRCC=FALSE
_MODUL_NBO6=FALSE
_MODUL_NECI=FALSE
_MODUL_AIMS=TRUE
_MODUL_HDF5=FALSE
_MODUL_GECCO=FALSE
_ISWINDOWS=FALSE
_MRCC_EXEC=
_FITC_AO_SAVED=FALSE
_FITC_MO_SAVED=FALSE
_LSTYP=SEWARD
_INTYP=INTS
_GEOMTYP=XYZ
_GRADTYP=ALASKA
_DIRECT=FALSE
_DKHO= -1.000000000000000    
_FNUC=  0.000000000000000    
_SYNCM=  0.000000000000000    
_BASIS=6-311G(D,P)
_ZCENTRE=MASS
_ZORIENT=  1.000000000000000    
_NELEC=  26.00000000000000    
!SPIN=  0.000000000000000    
_OPTCONV= 0.1945451705963030E-03
_QSDSTEP=  0.000000000000000    
_QSDIRC=  0.000000000000000    
_PROGRAM=FREQ
_CPUSTEP=  4.440000000000000    
_SYSSTEP= 0.1400000000000001    
_WALLSTEP=  4.590000000000000    
!DFSCF=  0.000000000000000    
!SCSGRD=  0.000000000000000    
_NCEN=  5.000000000000000    
_CPUTOT=  8.480000000000000    
_DFTEXFAC=  1.000000000000000    
_DMX=-0.3473065145480521E-09
_DMY= 0.3925364807505494E-13
_DMZ=-0.9122265387829787    
_DMX_SCF=-0.3473065145480521E-09
_DMY_SCF= 0.3925364807505494E-13
_DMZ_SCF=-0.9122265387829787    
_FREQUENCIES= 0.4654872529624487E-04
_HOMO=  13.10000000000000    
_EHOMO=-0.4372941317846037    
_LUMO=  14.10000000000000    
_ELUMO= 0.1418603570356387    
_ENERGY= -499.1307784433649    
_ENERGY_METHOD=HF
_ENERGY_BASIS=6-311G(D,P)
_GEOMETRY_METHOD=HF
_GEOMETRY_BASIS=6-311G(D,P)
_ENUC=  51.33011867895509    
_GRADENERG= -499.1307784409351    
_GRADEXFAC=  9999.000000000000    
_GRADMETHOD=  1.000000000000000    
_NMRMETHOD=  0.000000000000000    
_NMRMAGNET=  0.000000000000000    
_VIRIAL= 0.4202477523519933E-04
!GRID_FREEZE= -1.000000000000000    
!NEESE_INDEX=  0.000000000000000    
_ITERATIONS=  2.000000000000000    
_LASTNELEC=  26.00000000000000    
_LASTSPIN=  0.000000000000000    
_LASTSYM=  1.000000000000000    
_MPP_PROG=  0.000000000000000    
_MSNSTATES=  0.000000000000000    
_RS2PHASE=  0.000000000000000    
_NPROC_MPP=  1.000000000000000    
_NPROC_SMP=  6.000000000000000    
_NUMSTEP=  0.000000000000000    
_OPTCONVMX= 0.1846675199905919E-03
_OPTCONVRMS= 0.1123207066133172E-03
_OPTGRAD= 0.3611463544189665E-04
_OPTGRADMX= 0.3601467184839851E-04
_OPTGRADRMS= 0.2085079449406423E-04
!GMAXLAST= 0.3601467184839851E-04
!DMAXLAST= 0.1846675199905919E-03
!DELAST= 0.1366095034427417E-05
_OPTSTEP=  4.000000000000000    
_ORBITAL=  2100.200000000000    
_PI=  3.141592653589793    
_SEIG_MIN= 0.1070487726103471E-01
_SEWPROP=TRUE
_STATUS=  1.000000000000000    
_SYSTOT= 0.4700000000000001    
_VERSION=  2024001.000000000    
_WALLTOT=  8.960000000000001    
_ZPE= 0.2989574119860307E-01
_DATE=30-Sep-24
_LASTORB=0
_OUTPUT=/home/lme/Theoretische_Chemie/Nomodeco/deuterium_calculations/CH3Cl/CH3Cl.molpro/run/CH3Cl_2.molpro/CH3Cl_2.out
_PGROUP=C1
_TIME=10:38:19
_LIBMOL=/usr/local/molpro/molpro_2024.1.0_sockets/lib/
_VIGRDC=  0.000000000000000    
!VIBCNT=  0.000000000000000    
!SURFREC=  0.000000000000000    
!XSURFREC=  0.000000000000000    
!XPOLYREC=  0.000000000000000    
!ROTREC=  0.000000000000000    
!POLYREC=  0.000000000000000    
!DIPREC=  0.000000000000000    
!DIP4DREC=  0.000000000000000    
!DIPROT=  0.000000000000000    
!DIP4DROT=  0.000000000000000    
!PTREC=  0.000000000000000    
!PT4DREC=  0.000000000000000    
!VSCFREC=  0.000000000000000    
!VCIREC=  0.000000000000000    
!PVCIREC=  0.000000000000000    
!VMP2REC=  0.000000000000000    
!VMCSCFREC=  0.000000000000000    
!VMRCIREC=  0.000000000000000    
!VIBSTATEREC=  0.000000000000000    
!VIBSTATECNT=  0.000000000000000    
!VIBINFO=  0.000000000000000    
!GAREC=  0.000000000000000    
!SCFORB=  21002.00000000000    
!DEFCORE=  6.000000000000000    
!SCORE=  1.000000000000000    
!NEWMOL=  0.000000000000000    
!NEWSYM=  0.000000000000000    
_SLFILES=slscratch
_NGSSTO=  9.000000000000000    
_SIN=SIN
_COS=COS
_TAN=TAN
_ACOS=ACOS
_ASIN=ASIN
_ATAN=ATAN
_COSH=COSH
_SINH=SINH
_TANH=TANH
_ABS=ABS
_MOD=MOD
_ERF=ERF
_REFC=REFC
_ERFC=ERFC
_HYPOT=HYPOT
_J0=J0
_J1=J1
_JN=JN
_GAMMA=GAMMA
_LGAMMA=LGAMMA
_Y0=Y0
_Y1=Y1
_YN=YN
_EXP=EXP
_LOG=LOG
_LOG10=LOG10
_SQRT=SQRT
_INT=INT
_NINT=NINT
_MAX=MAX
_MIN=MIN
_COSMO=  0.000000000000000    
_COSMOIT=  0.000000000000000    
_COSMOES=  0.000000000000000    
_COSMOEDS=  0.000000000000000    
_COSMOEC=  0.000000000000000    
_COSMOEDCORR=  0.000000000000000    
_FEPSI=  1.000000000000000    
_SL_IsMM=  0.000000000000000    
_SL_NSYM=  1.000000000000000    
_SL_System_BitSw=  0.000000000000000    
_SL_Unique_atoms=  0.000000000000000    
_SL_GRAD=  0.000000000000000    
_SL_MAXUPD_Hess=  5.000000000000000    
_SL_N_PRINT_COD=  5.000000000000000    
_SL_PRINT_CODES=  0.000000000000000    
_SL_BasType=  0.000000000000000    
_SL_Energy_Pred=  0.000000000000000    
_SL_New_Coords=  0.000000000000000    
_SL_Total_Nuclea=  0.000000000000000    
_SL_Highest_Mltp=  0.000000000000000    
_SL_Ref_Geom=  0.000000000000000    
_SL_Symmetry_ope=  1.000000000000000    
_SL_agrad=  0.000000000000000    
_SL_GrdMax=  0.000000000000000    
_SL_GrdNorm=  0.000000000000000    
_SL_GrdRMS=  0.000000000000000    
_SL_Hss_Q=  0.000000000000000    
_SL_Hss_X=  0.000000000000000    
_SL_BMxOld=  0.000000000000000    
_SL_KtB=  0.000000000000000    
_SL_TROld=  0.000000000000000    
_SL_No_of_Intern=  0.000000000000000    
_SL_Hess=  0.000000000000000    
_SL_K=  0.000000000000000    
!LATTICE= -1.000000000000000    
!NEWLATTICE=  0.000000000000000    
!LATGRAD_VAR=FALSE
!SEW_LATTICE=  1.000000000000000    
!AIC_ONEEL=  0.000000000000000    
!LOCAL=  0.000000000000000    
!SAVEDOM= -1.000000000000000    
!RESTDOM= -1.000000000000000    
!SAVEDOM_HF= -1.000000000000000    
!RESTDOM_HF= -1.000000000000000    
!HESSREC=  5300.200000000000    
!FREQREC=  5400.200000000000    
!NMODREC=  5450.200000000000    
!GTASKS=  0.000000000000000    
!HTASKS=  0.000000000000000    
!SAVEDOM_EOM= -1.000000000000000    
!RESTDOM_EOM= -1.000000000000000    
!GRADSTATE= -1.000000000000000    
!DEBUG=  0.000000000000000    
!CFIT_CPHF=  0.000000000000000    
!RDOMAUX_CPHF=  0.000000000000000    
!THRAO_CPHF= 0.1000000000000000E-11
!THRMO_CPHF= 0.1000000000000000E-11
!THROV_CPHF= 0.1000000000000000E-13
!THRSW_CPHF= 0.1000000000000000E-11
!THRPROD_CPHF= 0.1000000000000000E-11
!THRAOPR_CPHF= 0.1000000000000000E-11
!CFIT_SCFGRD=  0.000000000000000    
!RDOMAUX_SCFGRD=  0.000000000000000    
!THRAO_SCFGRD= 0.1000000000000000E-11
!THRMO_SCFGRD= 0.1000000000000000E-11
!THROV_SCFGRD= 0.1000000000000000E-13
!THRSW_SCFGRD= 0.1000000000000000E-11
!THRPROD_SCFGRD= 0.1000000000000000E-11
!THRAOPR_SCFGRD= 0.1000000000000000E-11
!LOCFIT_SCF=  0.000000000000000    
!LOCFIT_MP2=  0.000000000000000    
_RIDOM=  0.000000000000000    
!CC2_METHOD=  0.000000000000000    
_BASIS2006=FALSE
_SVDDEL= -1.000000000000000    
_SVDDELA= -1.000000000000000    
_SVDDELP= -1.000000000000000    
_SVDDELF= -1.000000000000000    
_SVDDELS= -1.000000000000000    
_SVDDEL_ABS= -1.000000000000000    
_SVDDELA_ABS= -1.000000000000000    
_SVDDELP_ABS= -1.000000000000000    
_SVDDELF_ABS= -1.000000000000000    
_SVDDELS_ABS= -1.000000000000000    
_MAXBASIS=  0.000000000000000    
!OPT_CONICAL=  0.000000000000000    
!CLEARSP_JGRID=  0.000000000000000    
_GRDHYBR=  0.000000000000000    
_STATEGRAD=  1.000000000000000    
_4EXT_NDISKS=  1.000000000000000    
!EMBEDFLAG=  1.000000000000000    
!EMBED=FALSE
!EMBED_F12=FALSE
!EMBEDNUC=  0.000000000000000    
_EMBEDENERGY=  0.000000000000000    
!EMBED_DFC=FALSE
!NUM_VOIDS=  0.000000000000000    
_IBODY=  0.000000000000000    
_EMBE_CORR=  0.000000000000000    
!EMBED_PROJ=FALSE
!EMB_PROJ_ZMU=  1000000.000000000    
!CORRECTION_HF=  0.000000000000000    
!EMBED_AORB=  0.000000000000000    
!EMBED_NACORR=  0.000000000000000    
!EMBED_MP2=FALSE
!EMBED_TRUNC_PERTURBATION=FALSE
!EMBED_FROZEN=  0.000000000000000    
!EMBED_ACTIVE=  0.000000000000000    
_CHANGE_BASIS=FALSE
_RESTORE_BASIS=FALSE
_FIX_EMBED_GUESS=FALSE
_EMBED_SCF=FALSE
_NEOBAS=FALSE
_NEOOVE=FALSE
_PRINEO=FALSE
_HUZINAGA_T=FALSE
_HUZINAGA_F=FALSE
_HUZINAGA=FALSE
_HUZINAGA_CORRECT=FALSE
!FASTLATGRAD=  1.000000000000000    
!FASTVLAMBDA= -1.000000000000000    
!IFORCE= -1.000000000000000    
!USESYM= -1.000000000000000    
_SINDEX=  0.000000000000000    
_AVDOM_OSV=  0.000000000000000    
_AVDOM_PNO=  0.000000000000000    
_AVDOM_PNOCC=  0.000000000000000    
_AVDOM_TNO=  0.000000000000000    
_AVDOM_TNOIT=  0.000000000000000    
_AVDOM_PAO=  0.000000000000000    
_AVDOM_LMO=  0.000000000000000    
_CC2OSV_FLAG=  0.000000000000000    
_EOMCCSD_CONV=FALSE
_TMADC2_FLAG=FALSE
_PROPADC2_FLAG=FALSE
_LEN_VirQ=  0.000000000000000    
_GRDCC2LR_FLAG=FALSE
_GRDADC2_FLAG=FALSE
_RO_VGLOBAL=  0.000000000000000    
_OPT=FALSE
_FREQ=FALSE
_HESS=FALSE
_CMRCC_callName=EMPTY
_CMRCC_callCount=  0.000000000000000    
_GECCO_CIROOT=  1.000000000000000    
_SYM_CATION=  1.000000000000000    
_MON_A=FALSE
_MON_B=FALSE
_MAXGEOM=  100.0000000000000    
!MAXGEOM=  100.0000000000000    
_NCORE=  0.000000000000000    
_NLARGECORE=  0.000000000000000    
GX1=  0.000000000000000    
GY1=  0.000000000000000    
GZ1= -1.147843410677294    
GX2=  0.000000000000000    
GY2=  0.000000000000000    
GZ2= 0.6417637184293835    
GX3= 0.5121049680305927    
GY3=-0.8869918234374220    
GZ3= -1.483896376006614    
GX4= -1.024209936061185    
GY4=  0.000000000000000    
GZ4= -1.483896376006614    
GX5= 0.5121049680305927    
GY5= 0.8869918234374220    
GZ5= -1.483896376006614    
CX1=  0.000000000000000    
CY1=  0.000000000000000    
CZ1= -2.169109680136430    
CLX2=  0.000000000000000    
CLY2=  0.000000000000000    
CLZ2=  1.212757664552983    
HX3= 0.9677381366380559    
HY3= -1.676171621079145    
HZ3= -2.804157747977202    
HX4= -1.935476273276112    
HY4=  0.000000000000000    
HZ4= -2.804157747977202    
HX5= 0.9677381366380559    
HY5=  1.676171621079145    
HZ5= -2.804157747977202    
[Atoms] Angs
C     1    6         0.0000000000        0.0000000000       -1.1478434107
CL    2   17         0.0000000000        0.0000000000        0.6417637184
H     3    1         0.5121049680       -0.8869918234       -1.4838963760
H     4    1        -1.0242099361        0.0000000000       -1.4838963760
H     5    1         0.5121049680        0.8869918234       -1.4838963760
[GTO]
   1 0
 s    6  1.00
  0.4563240000D+04  0.1966650249D-02
  0.6820240000D+03  0.1523060193D-01
  0.1549730000D+03  0.7612690966D-01
  0.4445530000D+02  0.2608010331D+00
  0.1302900000D+02  0.6164620782D+00
  0.1827730000D+01  0.2210060280D+00
 s    3  1.00
  0.2096420000D+02  0.1146600807D+00
  0.4803310000D+01  0.9199996477D+00
  0.1459330000D+01 -0.3030682134D-02
 s    1  1.00
  0.4834560000D+00  0.1000000000D+01
 s    1  1.00
  0.1455850000D+00  0.1000000000D+01
 p    3  1.00
  0.2096420000D+02  0.4024869267D-01
  0.4803310000D+01  0.2375939567D+00
  0.1459330000D+01  0.8158538515D+00
 p    1  1.00
  0.4834560000D+00  0.1000000000D+01
 p    1  1.00
  0.1455850000D+00  0.1000000000D+01
 d    1  1.00
  0.6260000000D+00  0.1000000000D+01
  
   2 0
 s    6  1.00
  0.1058190000D+06  0.7380002465D-03
  0.1587200000D+05  0.5718001910D-02
  0.3619650000D+04  0.2949500985D-01
  0.1030800000D+04  0.1172860392D+00
  0.3399080000D+03  0.3629491212D+00
  0.1245380000D+03  0.5841491951D+00
 s    3  1.00
  0.1245380000D+03  0.1341769734D+00
  0.4951350000D+02  0.6242498762D+00
  0.2080560000D+02  0.2917559421D+00
 s    1  1.00
  0.6583460000D+01  0.1000000000D+01
 s    1  1.00
  0.2564680000D+01  0.1000000000D+01
 s    1  1.00
  0.5597630000D+00  0.1000000000D+01
 s    1  1.00
  0.1832730000D+00  0.1000000000D+01
 p    5  1.00
  0.5897760000D+03  0.2390999685D-02
  0.1398490000D+03  0.1850399756D-01
  0.4514130000D+02  0.8137698928D-01
  0.1687330000D+02  0.2215519708D+00
  0.6741100000D+01  0.7725688983D+00
 p    2  1.00
  0.6741100000D+01 -0.1572243813D+01
  0.2771520000D+01  0.9923888817D+00
 p    1  1.00
  0.1023870000D+01  0.1000000000D+01
 p    1  1.00
  0.3813680000D+00  0.1000000000D+01
 p    1  1.00
  0.1094370000D+00  0.1000000000D+01
 d    1  1.00
  0.7500000000D+00  0.1000000000D+01
  
   3 0
 s    3  1.00
  0.3386500000D+02  0.2549381454D-01
  0.5094790000D+01  0.1903731086D+00
  0.1158790000D+01  0.8521614860D+00
 s    1  1.00
  0.3258400000D+00  0.1000000000D+01
 s    1  1.00
  0.1027410000D+00  0.1000000000D+01
 p    1  1.00
  0.7500000000D+00  0.1000000000D+01
  
   4 0
 s    3  1.00
  0.3386500000D+02  0.2549381454D-01
  0.5094790000D+01  0.1903731086D+00
  0.1158790000D+01  0.8521614860D+00
 s    1  1.00
  0.3258400000D+00  0.1000000000D+01
 s    1  1.00
  0.1027410000D+00  0.1000000000D+01
 p    1  1.00
  0.7500000000D+00  0.1000000000D+01
  
   5 0
 s    3  1.00
  0.3386500000D+02  0.2549381454D-01
  0.5094790000D+01  0.1903731086D+00
  0.1158790000D+01  0.8521614860D+00
 s    1  1.00
  0.3258400000D+00  0.1000000000D+01
 s    1  1.00
  0.1027410000D+00  0.1000000000D+01
 p    1  1.00
  0.7500000000D+00  0.1000000000D+01


[MO]
 Sym=      1.1
 Ene=    -104.8250
 Spin= Alpha
 Occup=    2.000000
1 0.000000031156448
2 0.000000807037190
3 0.000000518493593
4 0.000037819746018
5 -0.000000000001166
6 0.000000000000000
7 0.000008203674411
8 0.000000000003580
9 -0.000000000000001
10 -0.000029386454417
11 -0.000000000004741
12 0.000000000000001
13 0.000029295155662
14 0.000007164624748
15 0.000007164624266
16 -0.000014329249014
17 -0.000000000000000
18 -0.000000000000140
19 -0.000000000000000
20 0.41173267898765
21 0.65466344517359
22 0.012078278173465
23 -0.000899611126921
24 0.000201791830181
25 -0.000126818822796
26 -0.000000000000777
27 0.000000000000000
28 -0.000155185240604
29 -0.000000000000974
30 0.000000000000000
31 -0.000099868674039
32 0.000000000000540
33 -0.000000000000000
34 0.000097970607804
35 0.000000000000478
36 0.000000000000000
37 -0.000063177738643
38 -0.000000000000964
39 -0.000000000000000
40 0.000046878978381
41 -0.000004553621323
42 -0.000004553621531
43 0.000009107242853
44 0.000000000000000
45 -0.000000000000203
46 -0.000000000000000
47 -0.000000918927183
48 -0.000011463153698
49 0.000009669205281
50 0.000002340546353
51 -0.000004053946918
52 -0.000000092543068
53 -0.000000918929135
54 -0.000011463146049
55 0.000009669189153
56 -0.000004681094770
57 -0.000000000000000
58 -0.000000092543132
59 -0.000000918927183
60 -0.000011463153697
61 0.000009669205279
62 0.000002340546353
63 0.000004053946918
64 -0.000000092543068
 Sym=      2.1
 Ene=     -11.2927
 Spin= Alpha
 Occup=    2.000000
1 0.56343419412870
2 0.46656159519950
3 0.004153827240659
4 -0.001229770982727
5 0.000000000002456
6 -0.000000000000000
7 0.001057194788852
8 -0.000000000039141
9 0.000000000000001
10 -0.000686782298148
11 0.000000000013210
12 -0.000000000000001
13 0.000067506064488
14 0.000155686870916
15 0.000155686811222
16 -0.000311373682139
17 0.000000000000000
18 0.000000000000261
19 -0.000000000000000
20 -0.000015880468368
21 -0.000047897316624
22 0.000106482770668
23 -0.000055871509132
24 0.000138057422827
25 0.000340688391681
26 0.000000000018431
27 -0.000000000000000
28 0.000099324051970
29 0.000000000011497
30 -0.000000000000000
31 0.000040184224418
32 -0.000000000014596
33 -0.000000000000000
34 -0.000025783123424
35 0.000000000014274
36 0.000000000000000
37 -0.000510643445272
38 -0.000000000007313
39 -0.000000000000000
40 -0.000050394257810
41 -0.000126804256096
42 -0.000126804253561
43 0.000253608509657
44 -0.000000000000000
45 -0.000000000001594
46 -0.000000000000000
47 0.000351070059572
48 0.000093792025762
49 0.000238718115972
50 0.000002966393636
51 -0.000005137987423
52 0.000041009258514
53 0.000351070058051
54 0.000093791972618
55 0.000238718134910
56 -0.000005932867910
57 -0.000000000000000
58 0.000041009231576
59 0.000351070059572
60 0.000093792025760
61 0.000238718115975
62 0.000002966393637
63 0.000005137987424
64 0.000041009258514
 Sym=      3.1
 Ene=     -10.5513
 Spin= Alpha
 Occup=    2.000000
1 -0.000117613660506
2 -0.000137389052177
3 0.000073068043443
4 0.004511460904463
5 0.000000000010988
6 -0.000000000000000
7 0.000588089904110
8 -0.000000000039000
9 0.000000000000001
10 -0.001436046855032
11 0.000000000010979
12 -0.000000000000000
13 0.002886800397462
14 0.000340338016284
15 0.000340337996371
16 -0.000680676012655
17 0.000000000000000
18 0.000000000013460
19 -0.000000000000000
20 -0.12194218364869
21 -0.33149409371485
22 0.51184303485954
23 0.60571716135085
24 0.042625610808657
25 -0.011831627479835
26 -0.000000000013610
27 -0.000000000000001
28 -0.005656399529644
29 -0.000000000010031
30 -0.000000000000000
31 -0.001485759563752
32 0.000000000008374
33 -0.000000000000000
34 -0.000900761912232
35 -0.000000000007517
36 -0.000000000000000
37 -0.000059617955096
38 0.000000000009560
39 0.000000000000000
40 0.002789829736528
41 -0.000112138568374
42 -0.000112138565805
43 0.000224277134179
44 0.000000000000000
45 0.000000000001659
46 -0.000000000000000
47 0.000011743007239
48 -0.001266449866736
49 0.000695654606948
50 0.000162225941124
51 -0.000280983572817
52 -0.000110981637110
53 0.000011743011425
54 -0.001266449938428
55 0.000695654674910
56 -0.000324451905918
57 -0.000000000000000
58 -0.000110981638579
59 0.000011743007239
60 -0.001266449866737
61 0.000695654606947
62 0.000162225941124
63 0.000280983572818
64 -0.000110981637110
 Sym=      4.1
 Ene=      -8.0195
 Spin= Alpha
 Occup=    2.000000
1 0.000055576192605
2 0.000131564515843
3 -0.000217923786226
4 -0.000967594616237
5 0.000000000001832
6 0.000000000000000
7 -0.000123239297966
8 0.000000000000300
9 -0.000000000000001
10 -0.000295021320849
11 0.000000000047735
12 0.000000000000001
13 -0.000221787029738
14 0.000046353233538
15 0.000046353297126
16 -0.000092706530664
17 0.000000000000000
18 -0.000000000006912
19 0.000000000000000
20 -0.000667343724885
21 -0.001855216391882
22 0.003481535254193
23 0.002732074687160
24 -0.000815593375175
25 0.000583110247399
26 -0.000000002478187
27 -0.000000000000038
28 1.23010579743553
29 -0.000000000654004
30 -0.000000000000010
31 0.32709589558574
32 -0.000000000096415
33 -0.000000000000001
34 0.051725399816248
35 -0.000000000009597
36 0.000000000000000
37 -0.003265470807898
38 0.000000000014664
39 -0.000000000000000
40 0.000856971839252
41 0.000191256017272
42 0.000191256020638
43 -0.000382512037910
44 0.000000000000000
45 0.000000000000741
46 -0.000000000000000
47 -0.000028217601191
48 0.000318933912145
49 0.000093671982072
50 -0.000025069168524
51 0.000043421142557
52 0.000076027867215
53 -0.000028217583903
54 0.000318933884548
55 0.000093672163079
56 0.000050138442321
57 0.000000000000000
58 0.000076027880780
59 -0.000028217601191
60 0.000318933912145
61 0.000093671982070
62 -0.000025069168524
63 -0.000043421142557
64 0.000076027867215
 Sym=      5.1
 Ene=      -8.0166
 Spin= Alpha
 Occup=    2.000000
1 -0.000000000000000
2 -0.000000000000001
3 0.000000000000006
4 0.000000000000024
5 -0.000000000100065
6 0.000002151937692
7 0.000000000000001
8 -0.000000002782443
9 0.000059835583646
10 -0.000000000000006
11 0.000000004325319
12 -0.000093015378469
13 -0.000000000000001
14 0.000000000066575
15 -0.000000000066571
16 -0.000000000000004
17 0.000001653084364
18 -0.000000003064079
19 0.000065892583644
20 0.000000000000000
21 -0.000000000000000
22 0.000000000000000
23 -0.000000000000001
24 0.000000000000000
25 -0.000000000000002
26 -0.000057258940645
27 1.23134340250181
28 -0.000000000000077
29 -0.000015219578539
30 0.32729434760943
31 -0.000000000000021
32 -0.000002288148198
33 0.049206222725821
34 -0.000000000000004
35 0.000000100735550
36 -0.002166300141300
37 0.000000000000001
38 -0.000000035237877
39 0.000757784358372
40 0.000000000000001
41 0.000000000066467
42 -0.000000000066468
43 0.000000000000000
44 0.000001650492022
45 0.000000016264088
46 -0.000349756354673
47 0.000020277137486
48 -0.000076113243307
49 0.000123417917920
50 0.000006417088603
51 -0.000009609853876
52 0.000019689586624
53 -0.000000001088749
54 0.000000004086758
55 -0.000000006626738
56 0.000000000619122
57 0.000001504985039
58 -0.000000001057206
59 -0.000020276048740
60 0.000076109156528
61 -0.000123411291194
62 -0.000006416883996
63 -0.000009609257085
64 -0.000019688529423
 Sym=      6.1
 Ene=      -8.0166
 Spin= Alpha
 Occup=    2.000000
1 0.000000000001489
2 0.000000000018873
3 -0.000000000105481
4 -0.000000000577659
5 0.000002151888416
6 0.000000000100068
7 -0.000000000017610
8 0.000059835906970
9 0.000000002782428
10 0.000000000133105
11 -0.000093015171956
12 -0.000000004325325
13 0.000000000037326
14 -0.000001431692698
15 0.000001431598694
16 0.000000000094004
17 0.000000000076872
18 0.000065892463358
19 0.000000003064083
20 -0.000000000001983
21 -0.000000000003422
22 -0.000000000001818
23 0.000000000028024
24 -0.000000000031219
25 0.000000000067437
26 1.23134340249925
27 0.000057258940641
28 0.000000002483940
29 0.32729434760702
30 0.000015219578537
31 0.000000000663752
32 0.049206222730895
33 0.000002288148201
34 0.000000000102311
35 -0.002166300151249
36 -0.000000100735552
37 -0.000000000010217
38 0.000757784297025
39 0.000000035237881
40 -0.000000000025713
41 -0.000001429351831
42 0.000001429370608
43 -0.000000000018777
44 0.000000000076750
45 -0.000349756334147
46 -0.000000016264089
47 -0.000011705694459
48 0.000043939215381
49 -0.000071247564427
50 -0.000002199712234
51 0.000006416510367
52 -0.000011366544862
53 0.000023413353932
54 -0.000087885000626
55 0.000142506884052
56 -0.000013314120425
57 0.000000000069983
58 0.000022735039599
59 -0.000011707580229
60 0.000043946293900
61 -0.000071259042283
62 -0.000002200309028
63 -0.000006417404076
64 -0.000011368375992
 Sym=      7.1
 Ene=      -1.1303
 Spin= Alpha
 Occup=    2.000000
1 -0.058479177981639
2 -0.096424247908323
3 0.24519856642448
4 0.10797223495453
5 0.000000000051661
6 -0.000000000000001
7 0.023434227455004
8 -0.000000000237678
9 0.000000000000003
10 0.072545461792328
11 0.000000000050809
12 -0.000000000000006
13 -0.002387148543776
14 -0.010321684983393
15 -0.010321685085032
16 0.020643370068425
17 0.000000000000001
18 0.000000000036152
19 -0.000000000000001
20 0.029708464559876
21 0.085861237452296
22 -0.16883089764219
23 -0.34080440833060
24 0.51147314901512
25 0.44493870978571
26 0.000000000014628
27 0.000000000000000
28 0.050049157245122
29 0.000000000023519
30 0.000000000000000
31 0.012668414491299
32 -0.000000000006863
33 -0.000000000000000
34 -0.029869101913334
35 -0.000000000015058
36 -0.000000000000000
37 -0.078693355412478
38 0.000000000055256
39 -0.000000000000000
40 -0.017773530794391
41 -0.012234458780166
42 -0.012234458744861
43 0.024468917525027
44 0.000000000000000
45 -0.000000000025915
46 -0.000000000000000
47 0.037695039361711
48 0.057141406458376
49 -0.007169435127854
50 -0.006462355691691
51 0.011193128434882
52 0.005130636258407
53 0.037695039409510
54 0.057141406078785
55 -0.007169434842494
56 0.012924711245010
57 0.000000000000000
58 0.005130636211016
59 0.037695039361711
60 0.057141406458372
61 -0.007169435127837
62 -0.006462355691691
63 -0.011193128434881
64 0.005130636258407
 Sym=      8.1
 Ene=      -0.9213
 Spin= Alpha
 Occup=    2.000000
1 -0.085368975334335
2 -0.14173833746653
3 0.36615435334608
4 0.26961692303706
5 0.000000000074615
6 0.000000000000000
7 -0.048795989442462
8 -0.000000000062136
9 -0.000000000000006
10 -0.061742583675349
11 0.000000000191906
12 -0.000000000000004
13 -0.023766521026555
14 0.006466409156961
15 0.006466409216548
16 -0.012932818373508
17 -0.000000000000003
18 -0.000000000055894
19 0.000000000000002
20 -0.019834116910666
21 -0.057600341324350
22 0.11558372706838
23 0.22530674404467
24 -0.33978104939245
25 -0.36187742522517
26 -0.000000000031209
27 -0.000000000000000
28 0.053688954257475
29 0.000000000006757
30 -0.000000000000000
31 0.013288597399819
32 0.000000000024665
33 0.000000000000000
34 -0.037633008353812
35 0.000000000041533
36 -0.000000000000000
37 -0.081143268924935
38 0.000000000051433
39 0.000000000000002
40 -0.008070036545316
41 -0.008066898808246
42 -0.008066898757889
43 0.016133797566135
44 -0.000000000000000
45 -0.000000000002069
46 -0.000000000000000
47 0.083447191063647
48 0.11160429603391
49 0.002053027516374
50 -0.008998437083303
51 0.015585750185171
52 0.003575528559725
53 0.083447190995728
54 0.11160429624852
55 0.002053027581975
56 0.017996874131279
57 0.000000000000001
58 0.003575528557617
59 0.083447191063645
60 0.11160429603393
61 0.002053027516362
62 -0.008998437083305
63 -0.015585750185175
64 0.003575528559727
 Sym=      9.1
 Ene=      -0.6243
 Spin= Alpha
 Occup=    2.000000
1 0.000000000007384
2 -0.000000000009326
3 0.000000000306094
4 -0.000000001211001
5 0.18720434436075
6 -0.000004156000622
7 -0.000000000020516
8 0.30290178363619
9 -0.000006724523428
10 -0.000000000199467
11 0.19820254808615
12 -0.000004400164537
13 -0.000000000071151
14 -0.024398437240179
15 0.024398437283656
16 -0.000000000043477
17 -0.000000625447785
18 -0.006444184875548
19 0.000000143063112
20 0.000000000001539
21 0.000000000002298
22 0.000000000002800
23 -0.000000000023819
24 -0.000000000103433
25 0.000000000429992
26 -0.10021072718893
27 0.000002224712494
28 -0.000000000105506
29 -0.023997636122882
30 0.000000532755748
31 -0.000000000047446
32 0.069398240279843
33 -0.000001540664720
34 0.000000000119395
35 0.17390554689846
36 -0.000003860762759
37 -0.000000000028010
38 0.059500172423164
39 -0.000001320924218
40 -0.000000000072548
41 -0.001024927139515
42 0.001024927127630
43 0.000000000011885
44 -0.000000026273748
45 -0.023326643842992
46 0.000000517859487
47 0.075479435740611
48 0.11135828879883
49 0.029567520342743
50 0.003411029979978
51 0.010332599738346
52 0.003375752625686
53 -0.15095306689002
54 -0.22270801385711
55 -0.059132766052481
56 -0.014485000949764
57 -0.000000208165495
58 -0.006751245537007
59 0.075473631274919
60 0.11134972520316
61 0.029565246562477
62 0.003411488746091
63 -0.010332221463116
64 0.003375493025969
 Sym=     10.1
 Ene=      -0.6243
 Spin= Alpha
 Occup=    2.000000
1 0.000000000000000
2 -0.000000000000000
3 -0.000000000000008
4 0.000000000000084
5 0.000004156000608
6 0.18720434440342
7 0.000000000000000
8 0.000006724523402
9 0.30290178361785
10 -0.000000000000010
11 0.000004400164493
12 0.19820254859955
13 -0.000000000000007
14 -0.000000541653662
15 0.000000541653667
16 -0.000000000000005
17 0.028172888607276
18 -0.000000143063104
19 -0.006444184857779
20 -0.000000000000000
21 -0.000000000000000
22 0.000000000000001
23 -0.000000000000001
24 0.000000000000002
25 -0.000000000000010
26 -0.000002224712553
27 -0.10021072706494
28 -0.000000000000001
29 -0.000000532755762
30 -0.023997636071465
31 -0.000000000000000
32 0.000001540664758
33 0.069398240115922
34 -0.000000000000000
35 0.000003860762875
36 0.17390554689057
37 0.000000000000006
38 0.000001320924290
39 0.059500172234708
40 0.000000000000007
41 -0.000000022753733
42 0.000000022753734
43 -0.000000000000001
44 0.001183483877989
45 -0.000000517859492
46 -0.023326643833146
47 -0.13072751505827
48 -0.19286832587767
49 -0.051209820605447
50 0.010332486325394
51 -0.008519351423903
52 -0.005846675203461
53 -0.000003351209807
54 -0.000004944194285
55 -0.000001312767670
56 -0.000000321572000
57 0.009376679361969
58 -0.000000149879969
59 0.13073086626809
60 0.19287327007188
61 0.051211133373090
62 -0.010332334863136
63 -0.008519810190017
64 0.005846825083429
 Sym=     11.1
 Ene=      -0.5462
 Spin= Alpha
 Occup=    2.000000
1 0.000694991570103
2 0.001730817445568
3 -0.002482193356541
4 -0.083880426106742
5 -0.000000000011068
6 -0.000000000000000
7 -0.13940356245781
8 -0.000000000276330
9 0.000000000000010
10 -0.27117769673697
11 -0.000000000283052
12 -0.000000000000003
13 -0.15595063551598
14 0.020300553339211
15 0.020300553170942
16 -0.040601106510153
17 0.000000000000003
18 0.000000000022039
19 -0.000000000000002
20 0.006482253074076
21 0.019150402817359
22 -0.041224181522798
23 -0.068521376181442
24 0.094012855037421
25 0.22157936001529
26 0.000000000010372
27 -0.000000000000000
28 -0.26896214207280
29 0.000000000004044
30 -0.000000000000000
31 -0.065550835656004
32 0.000000000010306
33 0.000000000000000
34 0.19013189123889
35 -0.000000000066359
36 -0.000000000000001
37 0.45069758522438
38 0.000000000099138
39 -0.000000000000001
40 0.16440993904920
41 0.026993468520252
42 0.026993468555043
43 -0.053986937075295
44 -0.000000000000000
45 -0.000000000002629