
 Working directory              : /tmp/lme/molpro.lBnQaXxsbB/
 Global scratch directory       : /tmp/lme/molpro.lBnQaXxsbB/
 Wavefunction directory         : /home/lme/wfu/
 Main file repository           : /tmp/lme/molpro.lBnQaXxsbB/

 id        : liedlgroup

 Nodes     nprocs
 sv1-c724     1
 GA implementation: MPI file
 GA implementation (serial work in mppx): MPI file

 Using customized tuning parameters: mindgm=1; mindgv=20; mindgc=4; mindgr=1; noblas=0; minvec=7
 default implementation of scratch files=df  


 Variables initialized (1042), CPU time= 0.00 sec
 
            orient,mass
            geometry=initial.xyz
 Including file /home/lme/Theoretische_Chemie/Nomodeco/metric_comparison/CH3CHO.molpro/run/CH3CHO_1.molpro/initial.xyz
            mass, iso
            basis=6-311g(d,p)
            {hf
            start, atden}
            optg;
            {frequencies, symm=auto, print=0, analytical}
            put, molden, CH3CHO.molden
 Commands initialized (847), CPU time= 0.01 sec, 718 directives.
 Default parameters read. Elapsed time= 0.06 sec

 Checking input...
 Passed
1


                                         ***  PROGRAM SYSTEM MOLPRO  ***
                                       Copyright, TTI GmbH Stuttgart, 2015
                                    Version 2024.1 linked Wed Jan 31 11:42:09 2024


 **********************************************************************************************************************************
 LABEL *                                                                                                                                                                 
  (6 PROC) 64 bit serial version                                                         DATE: 25-Sep-24          TIME: 12:30:57  
 **********************************************************************************************************************************

 SHA1:             675817fde4514a4a933b69e420913a90cee4ef91
 **********************************************************************************************************************************

 Memory per process:        32 MW
 Total memory per node:     32 MW

 GA preallocation disabled
 GA check disabled

 Variable memory set to 32.0 MW

 ZCENTRE=MASS


 Geometry recognized as XYZ



 Using masses of most abundant isotopes

 **********************************************************************************************************************************
 SETTING BASIS          =    6-311G(D,P)


 Recomputing integrals since basis changed


 Using spherical harmonics

 Library entry O      S 6-311G               selected for orbital group  1
 Library entry O      P 6-311G               selected for orbital group  1
 Library entry O      D 6-311G*              selected for orbital group  1
 Library entry C      S 6-311G               selected for orbital group  2
 Library entry C      P 6-311G               selected for orbital group  2
 Library entry C      D 6-311G*              selected for orbital group  2
 Library entry H      S 6-311G               selected for orbital group  3
 Library entry H      P 6-311G**             selected for orbital group  3


 PROGRAM * SEWARD (Integral evaluation for generally contracted gaussian basis sets)     Author: Roland Lindh, 1990

 Geometry written to block  1 of record 700

 Orientation using atomic masses  
 Molecule type: Asymmetric top
 Symmetry elements: Y
 Rotational constants:      10.0921473      9.0428946     56.5366859 GHz

 Point group  Cs  



 ATOMIC COORDINATES

 NR  ATOM    CHARGE       X              Y              Z

   1  O       8.00   -0.438082681    0.000000000    2.174047029
   2  C       6.00    0.801518052    0.000000000    0.224832927
   3  H       1.00    2.895936838    0.000000000    0.303068499
   4  C       6.00   -0.317026535    0.000000000   -2.382762432
   5  H       1.00   -2.373568172    0.000000000   -2.260060603
   6  H       1.00    0.330780958    1.664746671   -3.426302652
   7  H       1.00    0.330780958   -1.664746671   -3.426302652

 Bond lengths in Bohr (Angstrom)

 1-2  2.309988223  2-3  2.095879495  2-4  2.837374764  4-5  2.060198836  4-6  2.068819039
     ( 1.222393125)     ( 1.109091665)     ( 1.501474064)     ( 1.090210274)     ( 1.094771889)

 4-7  2.068819039
     ( 1.094771889)

 Bond angles

  1-2-3  120.31502947   1-2-4  124.32850071   2-4-5  109.80276328   2-4-6  109.88438864

  2-4-7  109.88438864   3-2-4  115.35646982   5-4-6  110.03628951   5-4-7  110.03628951

  6-4-7  107.15959881

 NUCLEAR CHARGE:                   24
 NUMBER OF PRIMITIVE AOS:         128
 NUMBER OF SYMMETRY AOS:          125
 NUMBER OF CONTRACTIONS:           78   (   55A'  +   23A"  )
 NUMBER OF INNER CORE ORBITALS:     0   (    0A'  +    0A"  )
 NUMBER OF OUTER CORE ORBITALS:     3   (    3A'  +    0A"  )
 NUMBER OF VALENCE ORBITALS:       16   (   12A'  +    4A"  )


 NUCLEAR REPULSION ENERGY   69.40167822


 Eigenvalues of metric

         1 0.367E-02 0.118E-01 0.196E-01 0.226E-01 0.265E-01 0.301E-01 0.401E-01 0.506E-01
         2 0.233E-01 0.456E-01 0.950E-01 0.145E+00 0.208E+00 0.323E+00 0.347E+00 0.368E+00


 Contracted 2-electron integrals neglected if value below      1.0D-11
 AO integral compression algorithm  1   Integral accuracy      1.0D-11

     12.059 MB (compressed) written to integral file ( 50.7%)


 NUMBER OF SORTED TWO-ELECTRON INTEGRALS:    2499916.     BUFFER LENGTH:  32768
 NUMBER OF SEGMENTS:   1  SEGMENT LENGTH:    2499916      RECORD LENGTH: 524288

 Memory used in sort:       3.06 MW

 SORT1 READ     3003834. AND WROTE     2362930. INTEGRALS IN      7 RECORDS. CPU TIME:     0.03 SEC, REAL TIME:     0.05 SEC
 SORT2 READ     2362930. AND WROTE     2499916. INTEGRALS IN     46 RECORDS. CPU TIME:     0.07 SEC, REAL TIME:     0.08 SEC

 FILE SIZES:   FILE 1:    42.3 MBYTE,  FILE 4:    29.4 MBYTE,   TOTAL:     71.8 MBYTE

 OPERATOR DM      FOR CENTER  0  COORDINATES:    0.000000    0.000000    0.000000


 **********************************************************************************************************************************
 DATASETS  * FILE   NREC   LENGTH (MB)   RECORD NAMES
              1      19       38.40       500      610      700      900      950      970     1000      129      960     1100   
                                          VAR    BASINP    GEOM    SYMINP    ZMAT    AOBASIS   BASIS     P2S    ABASIS      S 
                                         1400     1410     1200     1210     1080     1600     1650     1300     1700   
                                           T        V       H0       H01     AOSYM     SMH    MOLCAS    ERIS     OPER   

 PROGRAMS   *        TOTAL       INT
 CPU TIMES  *         0.60      0.50
 REAL TIME  *         0.69 SEC
 DISK USED  *        68.87 MB
 **********************************************************************************************************************************


 Program * Restricted Hartree-Fock

 Orbital guess generated from atomic densities.

 Initial occupancy:  10   2

 NELEC=   24   SYM=1   MS2= 0   THRE=1.0D-08   THRD=1.0D-06   THRG=1.0D-06  HFMA2=F  DIIS_START=2   DIIS_MAX=10   DIIS_INCORE=F

 Level shifts:    0.00 (CLOSED)    0.00 (OPEN)    0.30 (GAP_MIN)

 ITER           ETOT              DE          GRAD        DDIFF     DIIS  NEXP   TIME(IT)  TIME(TOT)  DIAG
   1     -152.87919647    -152.87919647     0.00D+00     0.65D-01     0     0       0.01      0.05    start
   2     -152.92039153      -0.04119505     0.12D-01     0.12D-01     1     0       0.02      0.07    diag
   3     -152.95329899      -0.03290746     0.98D-02     0.55D-02     2     0       0.01      0.08    diag
   4     -152.95463835      -0.00133936     0.12D-02     0.13D-02     3     0       0.01      0.09    diag
   5     -152.95480041      -0.00016206     0.39D-03     0.58D-03     4     0       0.01      0.10    diag
   6     -152.95482121      -0.00002079     0.13D-03     0.24D-03     5     0       0.01      0.11    diag
   7     -152.95482481      -0.00000360     0.56D-04     0.94D-04     6     0       0.01      0.12    diag
   8     -152.95482528      -0.00000047     0.18D-04     0.35D-04     7     0       0.01      0.13    fixocc
   9     -152.95482529      -0.00000001     0.23D-05     0.39D-05     8     0       0.01      0.14    diag
  10     -152.95482529      -0.00000000     0.49D-06     0.58D-06     9     0       0.01      0.15    diag/orth
  11     -152.95482529      -0.00000000     0.14D-06     0.15D-06     0     0       0.02      0.17    diag

 Final occupancy:  10   2

 !RHF STATE 1.1 Energy               -152.954825288647
  RHF One-electron energy            -345.272364654635
  RHF Two-electron energy             122.915861146692
  RHF Kinetic energy                  152.751076252653
  RHF Nuclear energy                   69.401678219295
  RHF Virial quotient                  -1.001333863178

 !RHF STATE 1.1 Dipole moment           0.53153914     0.00000000    -1.14901180
 Dipole moment /Debye                   1.35103772     0.00000000    -2.92049669

 Orbital energies:

           1.1          2.1          3.1          4.1          5.1          6.1          7.1          8.1          9.1         10.1
    -20.553520   -11.337639   -11.243386    -1.384228    -1.021933    -0.801489    -0.671517    -0.620283    -0.559830    -0.425671

          11.1         12.1
      0.152872     0.183662

           1.2          2.2          3.2          4.2
     -0.603683    -0.497135     0.144128     0.210361


 HOMO     10.1    -0.425671 =     -11.5831eV
 LUMO      3.2     0.144128 =       3.9219eV
 LUMO-HOMO         0.569798 =      15.5050eV

 Orbitals saved in record  2100.2


 **********************************************************************************************************************************
 DATASETS  * FILE   NREC   LENGTH (MB)   RECORD NAMES
              1      19       38.40       500      610      700      900      950      970     1000      129      960     1100   
                                          VAR    BASINP    GEOM    SYMINP    ZMAT    AOBASIS   BASIS     P2S    ABASIS      S 
                                         1400     1410     1200     1210     1080     1600     1650     1300     1700   
                                           T        V       H0       H01     AOSYM     SMH    MOLCAS    ERIS     OPER   

              2       4        0.54       700     1000      520     2100   
                                         GEOM     BASIS   MCVARS     RHF  

 PROGRAMS   *        TOTAL    HF-SCF       INT
 CPU TIMES  *         0.77      0.17      0.50
 REAL TIME  *         0.88 SEC
 DISK USED  *        68.87 MB
 **********************************************************************************************************************************


 PROGRAM * OPT (Geometry optimization)     Authors: F. Eckert and H.-J. Werner


 BFGS update of hessian

 *** Long output written to logfile /home/lme/Theoretische_Chemie/Nomodeco/metric_comparison/CH3CHO.molpro/run/CH3CHO_1.molpro/CH3CHO_1.log ***


 Geometry optimization using default procedure for command HF-SCF

 Geometry written to block  1 of record 700

 PQS Optimization using delocalized internal coordinates

 Point group cs. Number of degrees of freedom:   10

 ITER.   ENERGY(OLD)    ENERGY(NEW)      DE          GRADMAX     GRADNORM    GRADRMS     STEPMAX     STEPLEN     STEPRMS   CPU-time
   1  -152.95482529  -152.95783368    -0.00300839  0.03900276  0.07297099  0.02307545  0.06399362  0.08999966  0.02846039      1.33
   2  -152.95783368  -152.95791249    -0.00007881  0.00299505  0.00613600  0.00194037  0.01126222  0.02621086  0.00828860      2.67
   3  -152.95791249  -152.95791543    -0.00000294  0.00065137  0.00108659  0.00034361  0.00404202  0.00611257  0.00193296      3.97
   4  -152.95791543  -152.95791558    -0.00000015  0.00014694  0.00027921  0.00008829  0.00085195  0.00114902  0.00036335      5.29

 END OF GEOMETRY OPTIMIZATION.

 Geometry written to block  1 of record 700

 Recomputing wavefunction for reoriented structure

 Current geometry (xyz format, in Angstrom)

    7
 HF-SCF000/6-311G(D,P)  ENERGY=-152.95791558
 O         -0.2318288256        0.0000000000        1.1276379455
 C          0.4128967203        0.0000000000        0.1371241025
 H          1.5101878141        0.0000000000        0.1909387074
 C         -0.1592343677        0.0000000000       -1.2532375669
 H         -1.2404467179        0.0000000000       -1.2153310611
 H          0.1946176916        0.8756726184       -1.7913316567
 H          0.1946176916       -0.8756726184       -1.7913316567

 **********************************************************************************************************************************


 **********************************************************************************************************************************
 DATASETS  * FILE   NREC   LENGTH (MB)   RECORD NAMES
              1      19       38.47       500      610      700      900      950      970     1000      129      960     1100   
                                          VAR    BASINP    GEOM    SYMINP    ZMAT    AOBASIS   BASIS     P2S    ABASIS      S 
                                         1400     1410     1200     1210     1080     1600     1650     1300     1700   
                                           T        V       H0       H01     AOSYM     SMH    MOLCAS    ERIS     OPER   

              2       4        0.54       700     1000      520     2100   
                                         GEOM     BASIS   MCVARS     RHF  

 PROGRAMS   *        TOTAL      OPTG    HF-SCF       INT
 CPU TIMES  *         6.58      5.81      0.17      0.50
 REAL TIME  *         7.12 SEC
 DISK USED  *        69.58 MB
 **********************************************************************************************************************************


 PROGRAM * HESSIAN

 PROGRAM * MCKINLEY (Hessian of the energy)     Author: A. Bernhardsson, R. Lindh

 Orbitals from record         2100.2

 Number of closed-shell orbitals: 12 ( 10  2 )
 Number of occupied orbitals:     12 ( 10  2 )

 Number of electrons= 24     Singlet     Space symmetry=1      Wavefunction type: CLOSED          


 McKinley needed      7.39 seconds of CPU time

 Entering CPHF calculation

 CPHF needed 174 iterations for 21 perturbations.  Total CPU time:    2.13 sec


 HF-SCF hessian saved to record  5300.2

 PROGRAM * FREQUENCIES (Calculation of harmonic vibrational spectra for HF-SCF)


 Permanent Dipole Moment [debye]
     1-   3    0.000000    0.000000    0.000000

 Dipole Moment Norm    0.0000000 [debye]

 Dipole Moment Derivatives [debye/ang]
              1             2             3             4             5             6             7             8
    1    0.00000000    0.00000000    0.00000000    0.00000000    0.00000000    0.00000000    0.00000000    0.00000000
    2    0.00000000    0.00000000    0.00000000    0.00000000    0.00000000    0.00000000    0.00000000    0.00000000
    3    0.00000000    0.00000000    0.00000000    0.00000000    0.00000000    0.00000000    0.00000000    0.00000000
              9            10            11            12            13            14            15            16
    1    0.00000000    0.00000000    0.00000000    0.00000000    0.00000000    0.00000000    0.00000000    0.00000000
    2    0.00000000    0.00000000    0.00000000    0.00000000    0.00000000    0.00000000    0.00000000    0.00000000
    3    0.00000000    0.00000000    0.00000000    0.00000000    0.00000000    0.00000000    0.00000000    0.00000000
             17            18            19            20            21
    1    0.00000000    0.00000000    0.00000000    0.00000000    0.00000000
    2    0.00000000    0.00000000    0.00000000    0.00000000    0.00000000
    3    0.00000000    0.00000000    0.00000000    0.00000000    0.00000000

 Projecting out rotations and translations

 Force Constants (Second Derivatives of the Energy) in [a.u.]
                             OX1         OY1         OZ1         CX2         CY2     
           OX1           0.3832118
           OY1          -0.0000000   0.0260772
           OZ1          -0.4363556  -0.0000000   0.7687966
           CX2          -0.3802814  -0.0000000   0.3757511   0.8274779
           CY2          -0.0000000  -0.0777368  -0.0000000   0.0000000   0.2545313
           CZ2           0.3841649  -0.0000000  -0.7014379  -0.2699363   0.0000000
           HX3          -0.0332005  -0.0000000   0.0302098  -0.2933192  -0.0000000
           HY3          -0.0000000   0.0251430  -0.0000000   0.0000000  -0.0761666
           HZ3           0.0550557  -0.0000000  -0.0021935  -0.0380588   0.0000000
           CX4           0.0239536   0.0000000   0.0338642  -0.1485793  -0.0000000
           CY4          -0.0000000   0.0298514   0.0000000   0.0000000  -0.1040192
           CZ4          -0.0004794  -0.0000000  -0.0556734  -0.0630984   0.0000000
           HX5           0.0053246  -0.0000000   0.0003475  -0.0177107   0.0000000
           HY5          -0.0000000  -0.0012587   0.0000000  -0.0000000  -0.0008834
           HZ5           0.0049930  -0.0000000   0.0046254  -0.0425321   0.0000000
           HX6           0.0004960  -0.0021516  -0.0019085   0.0062064   0.0151781
           HY6           0.0003793  -0.0010381  -0.0002794   0.0001536   0.0021374
           HZ6          -0.0036893  -0.0049192  -0.0070586   0.0189372   0.0322479
           HX7           0.0004960   0.0021516  -0.0019085   0.0062064  -0.0151781
           HY7          -0.0003793  -0.0010381   0.0002794  -0.0001536   0.0021374
           HZ7          -0.0036893   0.0049192  -0.0070586   0.0189372  -0.0322479
                             CZ2         HX3         HY3         HZ3         CX4     
           CZ2           0.9977456
           HX3          -0.0430167   0.3372013
           HY3           0.0000000  -0.0000000   0.0270943
           HZ3          -0.0760684   0.0152064   0.0000000   0.0803399
           CX4          -0.0694032  -0.0102734  -0.0000000  -0.0318748   0.6588006
           CY4           0.0000000   0.0000000   0.0217172   0.0000000  -0.0000000
           CZ4          -0.1991437   0.0031805   0.0000000   0.0026847  -0.0315987
           HX5           0.0046195   0.0001677   0.0000000  -0.0027336  -0.3488003
           HY5           0.0000000   0.0000000   0.0022640  -0.0000000  -0.0000000
           HZ5           0.0044992  -0.0026627   0.0000000  -0.0067273   0.0160572
           HX6          -0.0032141  -0.0002879  -0.0015057   0.0012026  -0.0875506
           HY6          -0.0031867   0.0007201  -0.0000259   0.0008188  -0.0739641
           HZ6          -0.0127974  -0.0014587  -0.0038795   0.0009823   0.0414777
           HX7          -0.0032141  -0.0002879   0.0015057   0.0012026  -0.0875506
           HY7           0.0031867  -0.0007201  -0.0000259  -0.0008188   0.0739641
           HZ7          -0.0127974  -0.0014587   0.0038795   0.0009823   0.0414777
                             CY4         CZ4         HX5         HY5         HZ5     
           CY4           0.5769204
           CZ4           0.0000000   0.5546377
           HX5           0.0000000   0.0090603   0.3756624
           HY5          -0.0577830  -0.0000000   0.0000000   0.0531123
           HZ5          -0.0000000  -0.0584597  -0.0113979  -0.0000000   0.0567886
           HX6          -0.0731364   0.0414678  -0.0073218  -0.0299487   0.0177713
           HY6          -0.2333434   0.1142100   0.0003247   0.0022744  -0.0021817
           HZ6           0.1180480  -0.1220228   0.0000521  -0.0007935  -0.0003631
           HX7           0.0731364   0.0414678  -0.0073218   0.0299487   0.0177713
           HY7          -0.2333434  -0.1142100  -0.0003247   0.0022744   0.0021817
           HZ7          -0.1180480  -0.1220228   0.0000521   0.0007935  -0.0003631
                             HX6         HY6         HZ6         HX7         HY7     
           HX6           0.0848306
           HY6           0.0819753   0.2536792
           HZ6          -0.0485575  -0.1250423   0.1295579
           HX7           0.0036273  -0.0095890  -0.0067615   0.0848306
           HY7           0.0095890  -0.0236835  -0.0156614  -0.0819753   0.2536792
           HZ7          -0.0067615   0.0156614   0.0117018  -0.0485575   0.1250423
                             HZ7     
           HZ7           0.1295579


 Atomic Masses
     1-   7   15.994910   12.000000    1.007825   12.000000    1.007825    1.007825    1.007825

 Mass weighted Second Derivative Matrix
                             OX1         OY1         OZ1         CX2         CY2     
           OX1           0.0239584
           OY1          -0.0000000   0.0016303
           OZ1          -0.0272809  -0.0000000   0.0480651
           CX2          -0.0274488  -0.0000000   0.0271218   0.0689565
           CY2          -0.0000000  -0.0056111  -0.0000000   0.0000000   0.0212109
           CZ2           0.0277291  -0.0000000  -0.0506300  -0.0224947   0.0000000
           HX3          -0.0082692  -0.0000000   0.0075243  -0.0843446  -0.0000000
           HY3          -0.0000000   0.0062623  -0.0000000   0.0000000  -0.0219019
           HZ3           0.0137126  -0.0000000  -0.0005463  -0.0109439   0.0000000
           CX4           0.0017290   0.0000000   0.0024443  -0.0123816  -0.0000000
           CY4          -0.0000000   0.0021547   0.0000000   0.0000000  -0.0086683
           CZ4          -0.0000346  -0.0000000  -0.0040185  -0.0052582   0.0000000
           HX5           0.0013262  -0.0000000   0.0000866  -0.0050927   0.0000000
           HY5          -0.0000000  -0.0003135   0.0000000  -0.0000000  -0.0002540
           HZ5           0.0012436  -0.0000000   0.0011520  -0.0122302   0.0000000
           HX6           0.0001235  -0.0005359  -0.0004753   0.0017847   0.0043645
           HY6           0.0000945  -0.0002586  -0.0000696   0.0000442   0.0006146
           HZ6          -0.0009189  -0.0012252  -0.0017581   0.0054454   0.0092730
           HX7           0.0001235   0.0005359  -0.0004753   0.0017847  -0.0043645
           HY7          -0.0000945  -0.0002586   0.0000696  -0.0000442   0.0006146
           HZ7          -0.0009189   0.0012252  -0.0017581   0.0054454  -0.0092730
                             CZ2         HX3         HY3         HZ3         CX4     
           CZ2           0.0831455
           HX3          -0.0123695   0.3345832
           HY3           0.0000000  -0.0000000   0.0268839
           HZ3          -0.0218736   0.0150883   0.0000000   0.0797161
           CX4          -0.0057836  -0.0029541  -0.0000000  -0.0091657   0.0549001
           CY4           0.0000000   0.0000000   0.0062448   0.0000000  -0.0000000
           CZ4          -0.0165953   0.0009146   0.0000000   0.0007720  -0.0026332
           HX5           0.0013283   0.0001664   0.0000000  -0.0027123  -0.1002983
           HY5           0.0000000   0.0000000   0.0022465  -0.0000000  -0.0000000
           HZ5           0.0012938  -0.0026420   0.0000000  -0.0066751   0.0046173
           HX6          -0.0009242  -0.0002857  -0.0014940   0.0011932  -0.0251754
           HY6          -0.0009164   0.0007146  -0.0000257   0.0008125  -0.0212685
           HZ6          -0.0036799  -0.0014473  -0.0038494   0.0009747   0.0119270
           HX7          -0.0009242  -0.0002857   0.0014940   0.0011932  -0.0251754
           HY7           0.0009164  -0.0007146  -0.0000257  -0.0008125   0.0212685
           HZ7          -0.0036799  -0.0014473   0.0038494   0.0009747   0.0119270
                             CY4         CZ4         HX5         HY5         HZ5     
           CY4           0.0480767
           CZ4           0.0000000   0.0462198
           HX5           0.0000000   0.0026053   0.3727457
           HY5          -0.0166156  -0.0000000   0.0000000   0.0526999
           HZ5          -0.0000000  -0.0168102  -0.0113094  -0.0000000   0.0563477
           HX6          -0.0210305   0.0119242  -0.0072650  -0.0297162   0.0176333
           HY6          -0.0670984   0.0328413   0.0003222   0.0022567  -0.0021648
           HZ6           0.0339450  -0.0350879   0.0000517  -0.0007874  -0.0003603
           HX7           0.0210305   0.0119242  -0.0072650   0.0297162   0.0176333
           HY7          -0.0670984  -0.0328413  -0.0003222   0.0022567   0.0021648
           HZ7          -0.0339450  -0.0350879   0.0000517   0.0007874  -0.0003603
                             HX6         HY6         HZ6         HX7         HY7     
           HX6           0.0841720
           HY6           0.0813388   0.2517096
           HZ6          -0.0481805  -0.1240715   0.1285520
           HX7           0.0035992  -0.0095145  -0.0067090   0.0841720
           HY7           0.0095145  -0.0234996  -0.0155398  -0.0813388   0.2517096
           HZ7          -0.0067090   0.0155398   0.0116110  -0.0481805   0.1240715
                             HZ7     
           HZ7           0.1285520


 Mass Weighted 2nd Derivative Matrix Eigenvalues
     1-  10    0.000000    0.000000    0.000000    0.000000    0.000000    0.000000    0.001002    0.011295    0.027270    0.034311
    11-  20    0.056390    0.059407    0.085712    0.090517    0.094282    0.095664    0.153403    0.360082    0.379334    0.392882
    21-  21    0.406456

 Mass Weighted 2nd Derivative Matrix Eigenvectors
              1             2             3             4             5             6             7             8
    1    0.71766010   -0.46954433   -0.01868238   -0.00647592    0.01777726   -0.00063311    0.00000000    0.27539013
    2    0.31613218    0.49125152   -0.21931136    0.10284458    0.04468743    0.68984478   -0.29989714    0.00000000
    3   -0.10001452   -0.31465127    0.03715992    0.41340585    0.23630253    0.20477652    0.00000000    0.49373043
    4    0.44883390   -0.06186076    0.01708540    0.05838503    0.19054029   -0.17724852    0.00000000   -0.45054084
    5    0.18295205    0.24525513    0.41147724    0.32352134   -0.35241168    0.14507228    0.33917983    0.00000000
    6   -0.19908938   -0.04808214    0.05384030    0.39973078    0.31867668    0.06235574    0.00000000   -0.03099588
    7    0.13279349   -0.02335691    0.00442760    0.01591253    0.05246142   -0.04858490    0.00000000   -0.11816170
    8    0.06597243    0.07441378    0.23241472    0.30394907   -0.34672884   -0.10912063    0.29060784    0.00000000
    9   -0.11316538    0.09677457    0.02628331    0.13638783    0.14858147   -0.03865751    0.00000000   -0.14983987
   10    0.20631095    0.42218505    0.06378207    0.14821227    0.43638352   -0.42527847    0.00000000    0.04717480
   11    0.00353631   -0.01000787    0.70366508   -0.31016502    0.22733463    0.22249057   -0.01445668    0.00000000
   12   -0.09929166   -0.24726603    0.03462471    0.36276704    0.21751267    0.16441958    0.00000000   -0.36036200
   13    0.06170560    0.11852573    0.01811524    0.04224253    0.12452255   -0.12128700    0.00000000    0.00078542
   14   -0.00871802   -0.00136801    0.08282374   -0.29205569    0.30419526    0.21718959    0.39444751    0.00000000
   15    0.02588106   -0.18074494   -0.00048944    0.08488690    0.00763140    0.10354629    0.00000000   -0.47203770
   16    0.02367810    0.17625324   -0.07111919   -0.11237813    0.34796011   -0.02865528    0.34194788    0.20607047
   17   -0.01324453   -0.03127608    0.29900124   -0.05229622    0.00350796   -0.00725641   -0.30541075   -0.00942297
   18   -0.07574323   -0.08238912    0.10583608    0.06415809    0.10718627   -0.00688541   -0.25919090    0.00269041
   19    0.04149866    0.17702697    0.11856245    0.21843245   -0.03988331   -0.27347550   -0.34194788    0.20607047
   20   -0.01324453   -0.03127608    0.29900124   -0.05229622    0.00350796   -0.00725641   -0.30541075    0.00942297
   21   -0.01758161    0.01047487   -0.07887914    0.15935397    0.05514982    0.06559651    0.25919090    0.00269041
              9            10            11            12            13            14            15            16
    1    0.00000000    0.08020519    0.08712474    0.00000000    0.07263472    0.24086679   -0.06166714    0.00000000
    2    0.10879848    0.00000000    0.00000000   -0.14230797    0.00000000    0.00000000    0.00000000    0.01214704
    3    0.00000000   -0.28325071    0.13095381    0.00000000   -0.02949206   -0.11544954    0.08591874    0.00000000
    4    0.00000000   -0.21793546   -0.46184116    0.00000000    0.00803282   -0.21022732    0.01539896    0.00000000
    5   -0.20185556    0.00000000    0.00000000    0.56850754    0.00000000    0.00000000    0.00000000   -0.09033569
    6    0.00000000   -0.31777488   -0.29627228    0.00000000   -0.02210212   -0.18401473   -0.01968375    0.00000000
    7    0.00000000   -0.05076127   -0.14118050    0.00000000   -0.01015001   -0.12470485    0.00955222    0.00000000
    8    0.57548998    0.00000000    0.00000000   -0.53924133    0.00000000    0.00000000    0.00000000    0.07181575
    9    0.00000000   -0.27493552   -0.07249718    0.00000000    0.36588683    0.81619663   -0.12435525    0.00000000
   10    0.00000000   -0.00817998    0.45852807    0.00000000   -0.22009200   -0.02737366   -0.17869334    0.00000000
   11   -0.24084493    0.00000000    0.00000000   -0.35289204    0.00000000    0.00000000    0.00000000   -0.18214038
   12    0.00000000    0.58864233    0.02077393    0.00000000   -0.39264012    0.22120286   -0.00124369    0.00000000
   13    0.00000000   -0.00508095    0.15078792    0.00000000   -0.04288319   -0.01406852   -0.02497342    0.00000000
   14    0.25662073    0.00000000    0.00000000    0.21106042    0.00000000    0.00000000    0.00000000    0.70839917
   15    0.00000000   -0.14095993    0.58212487    0.00000000    0.38298551   -0.16353086    0.43134123    0.00000000
   16    0.19758037    0.25828015   -0.17263169    0.05056348    0.24770382   -0.00046056    0.41227964   -0.45016906
   17    0.13102576   -0.02210959    0.08322896    0.07554984    0.18123989   -0.14266941   -0.35183588    0.05580351
   18    0.43586496    0.30482456   -0.04034016    0.30013183    0.39986961   -0.16052970   -0.28852845   -0.14141689
   19   -0.19758037    0.25828015   -0.17263169   -0.05056348    0.24770382   -0.00046056    0.41227964    0.45016906
   20    0.13102576    0.02210959   -0.08322896    0.07554984   -0.18123989    0.14266941    0.35183588    0.05580351
   21   -0.43586496    0.30482456   -0.04034016   -0.30013183    0.39986961   -0.16052970   -0.28852845    0.14141689
             17            18            19            20            21
    1    0.32682202   -0.00086423    0.00017385    0.00000000    0.00353803
    2    0.00000000    0.00000000    0.00000000   -0.00078438    0.00000000
    3   -0.50811406    0.00318305    0.00168143    0.00000000   -0.00335488
    4   -0.37124335   -0.27516576   -0.03377882    0.00000000   -0.01848888
    5    0.00000000    0.00000000    0.00000000   -0.00298976    0.00000000
    6    0.68165643   -0.02535923   -0.01165376    0.00000000    0.00586042
    7   -0.07995236    0.95105027    0.10571577    0.00000000    0.04640708
    8    0.00000000    0.00000000    0.00000000    0.00020799    0.00000000
    9   -0.10957513    0.06277201    0.01334879    0.00000000    0.00529582
   10    0.01418410    0.01751987    0.00411438    0.00000000   -0.29611088
   11    0.00000000    0.00000000    0.00000000   -0.30238084    0.00000000
   12   -0.06291454   -0.01635163    0.17665304    0.00000000    0.08083179
   13   -0.00397862    0.00299326   -0.40694106    0.00000000    0.87107133
   14    0.00000000    0.00000000    0.00000000   -0.01551883    0.00000000
   15    0.07920549   -0.00024168    0.02103662    0.00000000   -0.03041518
   16    0.00700671   -0.03078032    0.20144681    0.22316294    0.07699665
   17   -0.01319576   -0.07195010    0.51118612    0.53607789    0.22100265
   18   -0.04022475    0.03435882   -0.30521746   -0.34201827   -0.13032897
   19    0.00700671   -0.03078032    0.20144681   -0.22316294    0.07699665
   20    0.01319576    0.07195010   -0.51118612    0.53607789   -0.22100265
   21   -0.04022475    0.03435882   -0.30521746    0.34201827   -0.13032897

   Low Vibration      Wavenumber
        Nr             [1/cm] 
        1                0.00
        2                0.00
        3                0.00
        4                0.00
        5                0.00
        6                0.00

     Vibration        Wavenumber
        Nr             [1/cm] 
        1              162.71
        2              546.31
        3              848.88
        4              952.19
        5             1220.69
        6             1252.92
        7             1504.96
        8             1546.57
        9             1578.40
       10             1589.94
       11             2013.36
       12             3084.64
       13             3166.03
       14             3222.07
       15             3277.26

 FREQUENCIES * CALCULATION OF NORMAL MODES FOR HF-SCF


 Atomic Coordinates

  Nr  Atom  Charge       X              Y              Z

   1   O     8.00   -0.438092988    0.000000000    2.130926885
   2   C     6.00    0.780261719    0.000000000    0.259126999
   3   H     1.00    2.853841365    0.000000000    0.360821864
   4   C     6.00   -0.300909345    0.000000000   -2.368275771
   5   H     1.00   -2.344104569    0.000000000   -2.296642856
   6   H     1.00    0.367774136    1.654781424   -3.385126229
   7   H     1.00    0.367774136   -1.654781424   -3.385126229

 Gradient norm at reference geometry: 0.24208D-03

 Normal Modes

                              1 A``       2 A`        3 A``       4 A`        5 A` 
 Wavenumbers [cm-1]          162.71      546.31      848.88      952.19     1220.69
 Intensities [km/mol]          0.00        0.00        0.00        0.00        0.00
 Intensities [relative]        0.00        0.00        0.00        0.00        0.00
           OX1              0.00000     0.06886     0.00000     0.02005     0.02178
           OY1             -0.07499     0.00000     0.02720     0.00000     0.00000
           OZ1             -0.00000     0.12345    -0.00000    -0.07082     0.03274
           CX2              0.00000    -0.13006    -0.00000    -0.06291    -0.13332
           CY2              0.09791     0.00000    -0.05827     0.00000    -0.00000
           CZ2             -0.00000    -0.00895    -0.00000    -0.09173    -0.08553
           HX3              0.00000    -0.11770    -0.00000    -0.05056    -0.14063
           HY3              0.28948     0.00000     0.57325    -0.00000     0.00000
           HZ3              0.00000    -0.14926    -0.00000    -0.27387    -0.07222
           CX4              0.00000     0.01362     0.00000    -0.00236     0.13237
           CY4             -0.00417     0.00000    -0.06953     0.00000     0.00000
           CZ4             -0.00000    -0.10403     0.00000     0.16993     0.00600
           HX5              0.00000     0.00078    -0.00000    -0.00506     0.15020
           HY5              0.39291    -0.00000     0.25562    -0.00000    -0.00000
           HZ5             -0.00000    -0.47020    -0.00000    -0.14041     0.57986
           HX6              0.34062     0.20527     0.19681     0.25728    -0.17196
           HY6             -0.30422    -0.00939     0.13052    -0.02202     0.08291
           HZ6             -0.25818     0.00268     0.43417     0.30364    -0.04018
           HX7             -0.34062     0.20527    -0.19681     0.25728    -0.17196
           HY7             -0.30422     0.00939     0.13052     0.02202    -0.08291
           HZ7              0.25818     0.00268    -0.43417     0.30364    -0.04018

                              6 A``       7 A`        8 A`        9 A`       10 A``
 Wavenumbers [cm-1]         1252.92     1504.96     1546.57     1578.40     1589.94
 Intensities [km/mol]          0.00        0.00        0.00        0.00        0.00
 Intensities [relative]        0.00        0.00        0.00        0.00        0.00
           OX1              0.00000     0.01816     0.06023    -0.01542    -0.00000
           OY1             -0.03558    -0.00000     0.00000    -0.00000     0.00304
           OZ1              0.00000    -0.00737    -0.02887     0.02148     0.00000
           CX2             -0.00000     0.00232    -0.06069     0.00445     0.00000
           CY2              0.16411    -0.00000    -0.00000     0.00000    -0.02608
           CZ2             -0.00000    -0.00638    -0.05312    -0.00568    -0.00000
           HX3             -0.00000    -0.01011    -0.12422     0.00952     0.00000
           HY3             -0.53714     0.00000     0.00000    -0.00000     0.07154
           HZ3             -0.00000     0.36446     0.81302    -0.12387    -0.00000
           CX4              0.00000    -0.06354    -0.00790    -0.05158    -0.00000
           CY4             -0.10187     0.00000     0.00000     0.00000    -0.05258
           CZ4             -0.00000    -0.11335     0.06386    -0.00036    -0.00000
           HX5              0.00000    -0.04272    -0.01401    -0.02488    -0.00000
           HY5              0.21024    -0.00000     0.00000    -0.00000     0.70564
           HZ5              0.00000     0.38150    -0.16289     0.42966     0.00000
           HX6              0.05037     0.24674    -0.00046     0.41068    -0.44842
           HY6              0.07526     0.18053    -0.14211    -0.35047     0.05559
           HZ6              0.29896     0.39831    -0.15991    -0.28741    -0.14087
           HX7             -0.05037     0.24674    -0.00046     0.41068     0.44842
           HY7              0.07526    -0.18053     0.14211     0.35047     0.05559
           HZ7             -0.29896     0.39831    -0.15991    -0.28741     0.14087

                             11 A`       12 A`       13 A`       14 A``      15 A` 
 Wavenumbers [cm-1]         2013.36     3084.64     3166.03     3222.07     3277.26
 Intensities [km/mol]          0.00        0.00        0.00        0.00        0.00
 Intensities [relative]        0.00        0.00        0.00        0.00        0.00
           OX1              0.08172    -0.00022     0.00004    -0.00000     0.00088
           OY1             -0.00000     0.00000    -0.00000    -0.00020     0.00000
           OZ1             -0.12705     0.00080     0.00042    -0.00000    -0.00084
           CX2             -0.10717    -0.07943    -0.00975     0.00000    -0.00534
           CY2              0.00000    -0.00000     0.00000    -0.00086     0.00000
           CZ2              0.19678    -0.00732    -0.00336     0.00000     0.00169
           HX3             -0.07964     0.94735     0.10530    -0.00000     0.04623
           HY3              0.00000    -0.00000    -0.00000     0.00021     0.00000
           HZ3             -0.10915     0.06253     0.01330    -0.00000     0.00528
           CX4              0.00409     0.00506     0.00119    -0.00000    -0.08548
           CY4             -0.00000    -0.00000    -0.00000    -0.08729     0.00000
           CZ4             -0.01816    -0.00472     0.05100    -0.00000     0.02333
           HX5             -0.00396     0.00298    -0.40536     0.00000     0.86768
           HY5              0.00000    -0.00000    -0.00000    -0.01546     0.00000
           HZ5              0.07890    -0.00024     0.02095    -0.00000    -0.03030
           HX6              0.00698    -0.03066     0.20066     0.22229     0.07670
           HY6             -0.01314    -0.07167     0.50920     0.53399     0.22014
           HZ6             -0.04007     0.03423    -0.30403    -0.34069    -0.12982
           HX7              0.00698    -0.03066     0.20066    -0.22229     0.07670
           HY7              0.01314     0.07167    -0.50920     0.53399    -0.22014
           HZ7             -0.04007     0.03423    -0.30403     0.34069    -0.12982


 Normal Modes of low/zero frequencies

                                  1           2           3           4           5
 Wavenumbers [cm-1]            0.00        0.00        0.00        0.00        0.00
 Intensities [km/mol]          0.00        0.00        0.00        0.00        0.00
 Intensities [relative]        0.00        0.00        0.00        0.00        0.00
           OX1              0.17944    -0.11740    -0.00467    -0.00162     0.00445
           OY1              0.07905     0.12283    -0.05484     0.02572     0.01117
           OZ1             -0.02501    -0.07868     0.00929     0.10337     0.05909
           CX2              0.12957    -0.01786     0.00493     0.01685     0.05500
           CY2              0.05281     0.07080     0.11878     0.09339    -0.10173
           CZ2             -0.05747    -0.01388     0.01554     0.11539     0.09199
           HX3              0.13228    -0.02327     0.00441     0.01585     0.05226
           HY3              0.06572     0.07412     0.23151     0.30277    -0.34538
           HZ3             -0.11273     0.09640     0.02618     0.13586     0.14800
           CX4              0.05956     0.12187     0.01841     0.04279     0.12597
           CY4              0.00102    -0.00289     0.20313    -0.08954     0.06563
           CZ4             -0.02866    -0.07138     0.01000     0.10472     0.06279
           HX5              0.06147     0.11806     0.01804     0.04208     0.12404
           HY5             -0.00868    -0.00136     0.08250    -0.29092     0.30301
           HZ5              0.02578    -0.18004    -0.00049     0.08456     0.00760
           HX6              0.02359     0.17557    -0.07084    -0.11194     0.34661
           HY6             -0.01319    -0.03115     0.29784    -0.05209     0.00349
           HZ6             -0.07545    -0.08207     0.10542     0.06391     0.10677
           HX7              0.04134     0.17634     0.11810     0.21758    -0.03973
           HY7             -0.01319    -0.03115     0.29784    -0.05209     0.00349
           HZ7             -0.01751     0.01043    -0.07857     0.15873     0.05494

                                  6
 Wavenumbers [cm-1]            0.00
 Intensities [km/mol]          0.00
 Intensities [relative]        0.00
           OX1             -0.00016
           OY1              0.17249
           OZ1              0.05120
           CX2             -0.05117
           CY2              0.04188
           CZ2              0.01800
           HX3             -0.04840
           HY3             -0.10870
           HZ3             -0.03851
           CX4             -0.12277
           CY4              0.06423
           CZ4              0.04746
           HX5             -0.12082
           HY5              0.21634
           HZ5              0.10314
           HX6             -0.02854
           HY6             -0.00723
           HZ6             -0.00686
           HX7             -0.27241
           HY7             -0.00723
           HZ7              0.06534


 Frequencies dumped to record   5400.2
 Frequency information read from record  5400.2

 Zero point energy:  0.05915702 [H]    12983.47 [1/CM]      155.32 [KJ/MOL]


 **********************************************************************************************************************************
 DATASETS  * FILE   NREC   LENGTH (MB)   RECORD NAMES
              1      19       38.47       500      610      700      900      950      970     1000      129      960     1100   
                                          VAR    BASINP    GEOM    SYMINP    ZMAT    AOBASIS   BASIS     P2S    ABASIS      S 
                                         1400     1410     1200     1210     1080     1600     1650     1300     1700   
                                           T        V       H0       H01     AOSYM     SMH    MOLCAS    ERIS     OPER   

              2       7        0.60       700     1000      520     2100     5300     5450     5400   
                                         GEOM     BASIS   MCVARS     RHF     HESS     NMOD     FREQ   

              4       5        0.98      4100     4000     4200     4300     4400   

 PROGRAMS   *        TOTAL      FREQ      OPTG    HF-SCF       INT
 CPU TIMES  *        16.11      9.53      5.81      0.17      0.50
 REAL TIME  *        16.95 SEC
 DISK USED  *        69.58 MB
 **********************************************************************************************************************************

 Dump information in style MOLDEN to ch3cho.molden                                                                   

 Molecular orbitals read from record     2100.2  Type=RHF/CANONICAL  
 Occupation numbers read from record     2100.2  Type=RHF/RHF  
 Orbital energies read from record       2100.2  Type=RHF/CANONICAL  
 Redundancy group numbers read from rec  2100.2  Type=RHF/RHF  

 DUMP ORBITAL  1.1 AS ORBITAL    1  occ=    2.0000  eig=  -20.5516  GROUP=   2
 DUMP ORBITAL  2.1 AS ORBITAL    2  occ=    2.0000  eig=  -11.3287  GROUP=   2
 DUMP ORBITAL  3.1 AS ORBITAL    3  occ=    2.0000  eig=  -11.2367  GROUP=   2
 DUMP ORBITAL  4.1 AS ORBITAL    4  occ=    2.0000  eig=   -1.4112  GROUP=   2
 DUMP ORBITAL  5.1 AS ORBITAL    5  occ=    2.0000  eig=   -1.0199  GROUP=   2
 DUMP ORBITAL  6.1 AS ORBITAL    6  occ=    2.0000  eig=   -0.8010  GROUP=   2
 DUMP ORBITAL  7.1 AS ORBITAL    7  occ=    2.0000  eig=   -0.6796  GROUP=   2
 DUMP ORBITAL  8.1 AS ORBITAL    8  occ=    2.0000  eig=   -0.6290  GROUP=   2
 DUMP ORBITAL  1.2 AS ORBITAL    9  occ=    2.0000  eig=   -0.6072  GROUP=   2
 DUMP ORBITAL  9.1 AS ORBITAL   10  occ=    2.0000  eig=   -0.5624  GROUP=   2
 DUMP ORBITAL  2.2 AS ORBITAL   11  occ=    2.0000  eig=   -0.5107  GROUP=   2
 DUMP ORBITAL 10.1 AS ORBITAL   12  occ=    2.0000  eig=   -0.4204  GROUP=   2

 Total charge:      24.000000
 Frequency information read from record  5400.2

 **********************************************************************************************************************************

 HF/6-311G(D,P)//HF/6-311G(D,P) energy=   -152.957915580647

    OPTG(HF-SCF)          HF-SCF
   -152.95791558   -152.95482529
 **********************************************************************************************************************************
 Molpro calculation terminated
