
 Working directory              : /tmp/lme/molpro.NcIiJHDLaV/
 Global scratch directory       : /tmp/lme/molpro.NcIiJHDLaV/
 Wavefunction directory         : /home/lme/wfu/
 Main file repository           : /tmp/lme/molpro.NcIiJHDLaV/

 id        : liedlgroup

 Nodes     nprocs
 sv1-c724     1
 GA implementation: MPI file
 GA implementation (serial work in mppx): MPI file

 Using customized tuning parameters: mindgm=1; mindgv=20; mindgc=4; mindgr=1; noblas=0; minvec=7
 default implementation of scratch files=df  


 Variables initialized (1042), CPU time= 0.01 sec
 
                     orient,mass
                     geometry=initial.xyz
 Including file /home/lme/Theoretische_Chemie/Nomodeco/deuterium_calculations/CH3Cl/CH3Cl.molpro/run/CH3Cl_3.molpro/initial.xyz
                     mass, H3=2.014;                                             ! Set custom mass for hydrogen
                     basis=6-311g(d,p)
                     {hf
                     start, atden}
                     optg;
                     {frequencies, symm=auto, print=0, analytical}
                     put, molden, CH3Cl.molden
 Commands initialized (847), CPU time= 0.00 sec, 718 directives.
 Default parameters read. Elapsed time= 0.06 sec

 Checking input...
 Passed
1


                                         ***  PROGRAM SYSTEM MOLPRO  ***
                                       Copyright, TTI GmbH Stuttgart, 2015
                                    Version 2024.1 linked Wed Jan 31 11:42:09 2024


 **********************************************************************************************************************************
 LABEL *                                                                                                                                                                 
  (6 PROC) 64 bit serial version                                                         DATE: 30-Sep-24          TIME: 10:41:43  
 **********************************************************************************************************************************

 SHA1:             675817fde4514a4a933b69e420913a90cee4ef91
 **********************************************************************************************************************************

 Memory per process:        32 MW
 Total memory per node:     32 MW

 GA preallocation disabled
 GA check disabled

 Variable memory set to 32.0 MW

 ZCENTRE=MASS


 Geometry recognized as XYZ


 SETTING MASS FOR H3   (Z=  1)   TO   2.014
 SETTING BASIS          =    6-311G(D,P)


 Recomputing integrals since basis changed


 Using spherical harmonics

 Library entry C      S 6-311G               selected for orbital group  1
 Library entry C      P 6-311G               selected for orbital group  1
 Library entry C      D 6-311G*              selected for orbital group  1
 Library entry CL     S 6-311G               selected for orbital group  2
 Library entry CL     P 6-311G               selected for orbital group  2
 Library entry CL     D 6-311G*              selected for orbital group  2
 Library entry H      S 6-311G               selected for orbital group  3
 Library entry H      P 6-311G**             selected for orbital group  3


 PROGRAM * SEWARD (Integral evaluation for generally contracted gaussian basis sets)     Author: Roland Lindh, 1990

 Geometry written to block  1 of record 700

 Orientation using atomic masses  
 Molecule type: Symmetric top,     Order of principal axis = 1
 Rotational constants:      13.3098888     13.3098895    157.7474619 GHz  (calculated with average atomic masses)

 Point group  C1  



 ATOMIC COORDINATES

 NR  ATOM    CHARGE       X              Y              Z

   1  C       6.00   -0.000000000    0.000000000   -2.318559247
   2  CL     17.00   -0.000000000    0.000000000    1.040126583
   3  H       1.00    0.972564997   -1.684530974   -2.985426589
   4  H       1.00   -1.945128237    0.000000000   -2.985426589
   5  H       1.00    0.972563240    1.684530974   -2.985426589

 Bond lengths in Bohr (Angstrom)

 1-2  3.358685830  1-3  2.056268301  1-4  2.056267470  1-5  2.056267470
     ( 1.777340000)     ( 1.088130324)     ( 1.088129885)     ( 1.088129885)

 Bond angles

  2-1-3  108.92374643   2-1-4  108.92375437   2-1-5  108.92375437   3-1-4  110.01311085

  3-1-5  110.01311085   4-1-5  110.01307001

 NUCLEAR CHARGE:                   26
 NUMBER OF PRIMITIVE AOS:         105
 NUMBER OF SYMMETRY AOS:          103
 NUMBER OF CONTRACTIONS:           62   (   62A   )
 NUMBER OF INNER CORE ORBITALS:     1   (    1A   )
 NUMBER OF OUTER CORE ORBITALS:     5   (    5A   )
 NUMBER OF VALENCE ORBITALS:       11   (   11A   )


 NUCLEAR REPULSION ENERGY   51.42039764


 Eigenvalues of metric

         1 0.109E-01 0.228E-01 0.228E-01 0.266E-01 0.287E-01 0.287E-01 0.302E-01 0.468E-01


 Contracted 2-electron integrals neglected if value below      1.0D-11
 AO integral compression algorithm  1   Integral accuracy      1.0D-11

     7.340 MB (compressed) written to integral file ( 35.5%)


 NUMBER OF SORTED TWO-ELECTRON INTEGRALS:    1908081.     BUFFER LENGTH:  32768
 NUMBER OF SEGMENTS:   1  SEGMENT LENGTH:    1908081      RECORD LENGTH: 524288

 Memory used in sort:       2.47 MW

 SORT1 READ     2520226. AND WROTE     1319935. INTEGRALS IN      4 RECORDS. CPU TIME:     0.01 SEC, REAL TIME:     0.02 SEC
 SORT2 READ     1319935. AND WROTE     1908081. INTEGRALS IN     28 RECORDS. CPU TIME:     0.05 SEC, REAL TIME:     0.06 SEC

 FILE SIZES:   FILE 1:    37.5 MBYTE,  FILE 4:    16.8 MBYTE,   TOTAL:     54.4 MBYTE

 OPERATOR DM      FOR CENTER  0  COORDINATES:    0.000000    0.000000    0.000000


 **********************************************************************************************************************************
 DATASETS  * FILE   NREC   LENGTH (MB)   RECORD NAMES
              1      19       34.13       500      610      700      900      950      970     1000      129      960     1100   
                                          VAR    BASINP    GEOM    SYMINP    ZMAT    AOBASIS   BASIS     P2S    ABASIS      S 
                                         1400     1410     1200     1210     1080     1600     1650     1300     1700   
                                           T        V       H0       H01     AOSYM     SMH    MOLCAS    ERIS     OPER   

 PROGRAMS   *        TOTAL       INT
 CPU TIMES  *         0.41      0.31
 REAL TIME  *         0.47 SEC
 DISK USED  *        52.26 MB
 **********************************************************************************************************************************


 Program * Restricted Hartree-Fock

 Orbital guess generated from atomic densities.

 Initial occupancy:  13

 NELEC=   26   SYM=1   MS2= 0   THRE=1.0D-08   THRD=1.0D-06   THRG=1.0D-06  HFMA2=F  DIIS_START=2   DIIS_MAX=10   DIIS_INCORE=F

 Level shifts:    0.00 (CLOSED)    0.00 (OPEN)    0.30 (GAP_MIN)

 ITER           ETOT              DE          GRAD        DDIFF     DIIS  NEXP   TIME(IT)  TIME(TOT)  DIAG
   1     -499.11232246    -499.11232246     0.00D+00     0.15D+00     0     0       0.01      0.03    start
   2     -499.12830958      -0.01598712     0.44D-02     0.49D-02     1     0       0.01      0.04    diag
   3     -499.13018651      -0.00187693     0.16D-02     0.13D-02     2     0       0.01      0.05    diag
   4     -499.13047891      -0.00029240     0.56D-03     0.62D-03     3     0       0.01      0.06    diag
   5     -499.13048848      -0.00000957     0.83D-04     0.14D-03     4     0       0.01      0.07    diag
   6     -499.13048879      -0.00000031     0.16D-04     0.28D-04     5     0       0.01      0.08    diag
   7     -499.13048880      -0.00000001     0.27D-05     0.45D-05     6     0       0.01      0.09    diag
   8     -499.13048880      -0.00000000     0.77D-06     0.15D-05     7     0       0.01      0.10    fixocc
   9     -499.13048880      -0.00000000     0.24D-06     0.52D-06     8     0       0.02      0.12    diag
  10     -499.13048880      -0.00000000     0.48D-07     0.64D-07     0     0       0.01      0.13    diag/orth

 Final occupancy:  13

 !RHF STATE 1.1 Energy               -499.130488797801
  RHF One-electron energy            -790.211591932693
  RHF Two-electron energy             239.660705490500
  RHF Kinetic energy                  499.122614822403
  RHF Nuclear energy                   51.420397644392
  RHF Virial quotient                  -1.000015775633

 !RHF STATE 1.1 Dipole moment          -0.00000007     0.00000012    -0.88683390
 Dipole moment /Debye                  -0.00000018     0.00000031    -2.25410695

 Orbital energies:

           1.1          2.1          3.1          4.1          5.1          6.1          7.1          8.1          9.1         10.1
   -104.826157   -11.294296   -10.552560    -8.020829    -8.017906    -8.017906    -1.132876    -0.917644    -0.620104    -0.620104

          11.1         12.1         13.1         14.1         15.1
     -0.550332    -0.437191    -0.437191     0.141928     0.200189


 HOMO     13.1    -0.437191 =     -11.8966eV
 LUMO     14.1     0.141928 =       3.8620eV
 LUMO-HOMO         0.579119 =      15.7586eV

 Orbitals saved in record  2100.2


 **********************************************************************************************************************************
 DATASETS  * FILE   NREC   LENGTH (MB)   RECORD NAMES
              1      19       34.13       500      610      700      900      950      970     1000      129      960     1100   
                                          VAR    BASINP    GEOM    SYMINP    ZMAT    AOBASIS   BASIS     P2S    ABASIS      S 
                                         1400     1410     1200     1210     1080     1600     1650     1300     1700   
                                           T        V       H0       H01     AOSYM     SMH    MOLCAS    ERIS     OPER   

              2       4        0.51       700     1000      520     2100   
                                         GEOM     BASIS   MCVARS     RHF  

 PROGRAMS   *        TOTAL    HF-SCF       INT
 CPU TIMES  *         0.54      0.13      0.31
 REAL TIME  *         0.61 SEC
 DISK USED  *        52.26 MB
 **********************************************************************************************************************************


 PROGRAM * OPT (Geometry optimization)     Authors: F. Eckert and H.-J. Werner


 BFGS update of hessian

 *** Long output written to logfile /home/lme/Theoretische_Chemie/Nomodeco/deuterium_calculations/CH3Cl/CH3Cl.molpro/run/CH3Cl_3.molpro/CH3Cl_3.log ***


 Geometry optimization using default procedure for command HF-SCF

 Geometry written to block  1 of record 700

 PQS Optimization using delocalized internal coordinates

 Point group c3v. Number of degrees of freedom:    3

 ITER.   ENERGY(OLD)    ENERGY(NEW)      DE          GRADMAX     GRADNORM    GRADRMS     STEPMAX     STEPLEN     STEPRMS   CPU-time
   1  -499.13048880  -499.13075976    -0.00027097  0.00882924  0.01274981  0.00736110  0.03352289  0.04108475  0.02372029      0.83
   2  -499.13075976  -499.13077707    -0.00001731  0.00195201  0.00239494  0.00138272  0.01146529  0.01236785  0.00714058      1.64
   3  -499.13077707  -499.13077844    -0.00000137  0.00058842  0.00073146  0.00042231  0.00346264  0.00407856  0.00235476      2.48
   4  -499.13077844  -499.13077844    -0.00000000  0.00003601  0.00003611  0.00002085  0.00018467  0.00019455  0.00011232      3.24

 END OF GEOMETRY OPTIMIZATION.

 Geometry written to block  1 of record 700

 Recomputing wavefunction for reoriented structure

 Current geometry (xyz format, in Angstrom)

    5
 HF-SCF000/6-311G(D,P)  ENERGY=-499.13077844
 C         -0.0000000000        0.0000000000       -1.2365512686
 Cl        -0.0000000000        0.0000000000        0.5530558605
 H          0.5121049680       -0.8869918234       -1.5726042339
 H         -1.0242099361       -0.0000000000       -1.5726042339
 H          0.5121049680        0.8869918234       -1.5726042339

 **********************************************************************************************************************************


 **********************************************************************************************************************************
 DATASETS  * FILE   NREC   LENGTH (MB)   RECORD NAMES
              1      19       34.14       500      610      700      900      950      970     1000      129      960     1100   
                                          VAR    BASINP    GEOM    SYMINP    ZMAT    AOBASIS   BASIS     P2S    ABASIS      S 
                                         1400     1410     1200     1210     1080     1600     1650     1300     1700   
                                           T        V       H0       H01     AOSYM     SMH    MOLCAS    ERIS     OPER   

              2       4        0.51       700     1000      520     2100   
                                         GEOM     BASIS   MCVARS     RHF  

 PROGRAMS   *        TOTAL      OPTG    HF-SCF       INT
 CPU TIMES  *         4.04      3.50      0.13      0.31
 REAL TIME  *         4.37 SEC
 DISK USED  *        52.69 MB
 **********************************************************************************************************************************


 PROGRAM * HESSIAN

 PROGRAM * MCKINLEY (Hessian of the energy)     Author: A. Bernhardsson, R. Lindh

 Orbitals from record         2100.2

 Number of closed-shell orbitals: 13 ( 13 )
 Number of occupied orbitals:     13 ( 13 )

 Number of electrons= 26     Singlet     Space symmetry=1      Wavefunction type: CLOSED          


 McKinley needed      2.83 seconds of CPU time

 Entering CPHF calculation

 CPHF needed 112 iterations for 15 perturbations.  Total CPU time:    1.60 sec


 HF-SCF hessian saved to record  5300.2

 PROGRAM * FREQUENCIES (Calculation of harmonic vibrational spectra for HF-SCF)


 Permanent Dipole Moment [debye]
     1-   3    0.000000    0.000000    0.000000

 Dipole Moment Norm    0.0000000 [debye]

 Dipole Moment Derivatives [debye/ang]
              1             2             3             4             5             6             7             8
    1    0.00000000    0.00000000    0.00000000    0.00000000    0.00000000    0.00000000    0.00000000    0.00000000
    2    0.00000000    0.00000000    0.00000000    0.00000000    0.00000000    0.00000000    0.00000000    0.00000000
    3    0.00000000    0.00000000    0.00000000    0.00000000    0.00000000    0.00000000    0.00000000    0.00000000
              9            10            11            12            13            14            15
    1    0.00000000    0.00000000    0.00000000    0.00000000    0.00000000    0.00000000    0.00000000
    2    0.00000000    0.00000000    0.00000000    0.00000000    0.00000000    0.00000000    0.00000000
    3    0.00000000    0.00000000    0.00000000    0.00000000    0.00000000    0.00000000    0.00000000

 Projecting out rotations and translations

 Force Constants (Second Derivatives of the Energy) in [a.u.]
                             CX1         CY1         CZ1         CLX2        CLY2    
           CX1           0.6394279
           CY1          -0.0000000   0.6394279
           CZ1          -0.0000000  -0.0000000   0.3853601
           CLX2         -0.0386913   0.0000000   0.0000000   0.0249005
           CLY2          0.0000000  -0.0386913   0.0000000  -0.0000000   0.0249005
           CLZ2          0.0000000  -0.0000000  -0.1617411  -0.0000000  -0.0000000
           HX3          -0.1309713   0.1199865   0.0431897   0.0029334  -0.0028813
           HY3           0.1199865  -0.2695198  -0.0748067  -0.0028813   0.0062605
           HZ3           0.0431673  -0.0747679  -0.0745397   0.0129946  -0.0225074
           HX4          -0.3387940  -0.0000000  -0.0863793   0.0079240  -0.0000000
           HY4           0.0000000  -0.0616971  -0.0000000  -0.0000000   0.0012698
           HZ4          -0.0863346  -0.0000000  -0.0745397  -0.0259893   0.0000000
           HX5          -0.1309713  -0.1199865   0.0431897   0.0029334   0.0028813
           HY5          -0.1199865  -0.2695198   0.0748067   0.0028813   0.0062605
           HZ5           0.0431673   0.0747679  -0.0745397   0.0129946   0.0225074
                             CLZ2        HX3         HY3         HZ3         HX4     
           CLZ2          0.2426163
           HX3          -0.0017983   0.1292072
           HY3           0.0031147  -0.1308561   0.2803068
           HZ3          -0.0269584  -0.0453691   0.0785816   0.0886765
           HX4           0.0035965  -0.0124933  -0.0015230  -0.0039777   0.3558566
           HY4          -0.0000000   0.0290248   0.0033849   0.0101660  -0.0000000
           HZ4          -0.0269584   0.0107928   0.0016382   0.0064108   0.0907382
           HX5          -0.0017983   0.0113240   0.0152739  -0.0068151  -0.0124933
           HY5          -0.0031147  -0.0152739  -0.0204324   0.0085278   0.0015230
           HZ5          -0.0269584  -0.0068151  -0.0085278   0.0064108  -0.0039777
                             HY4         HZ4         HX5         HY5         HZ5     
           HY4           0.0536574
           HZ4           0.0000000   0.0886765
           HX5          -0.0290248   0.0107928   0.1292072
           HY5           0.0033849  -0.0016382   0.1308561   0.2803068
           HZ5          -0.0101660   0.0064108  -0.0453691  -0.0785816   0.0886765


 Atomic Masses
     1-   5   12.011000   35.453000    1.007940    1.007940    1.007940

 Mass weighted Second Derivative Matrix
                             CX1         CY1         CZ1         CLX2        CLY2    
           CX1           0.0532369
           CY1          -0.0000000   0.0532369
           CZ1          -0.0000000  -0.0000000   0.0320839
           CLX2         -0.0018750   0.0000000   0.0000000   0.0007024
           CLY2          0.0000000  -0.0018750   0.0000000  -0.0000000   0.0007024
           CLZ2          0.0000000  -0.0000000  -0.0078380  -0.0000000  -0.0000000
           HX3          -0.0376417   0.0344846   0.0124129   0.0004907  -0.0004820
           HY3           0.0344846  -0.0774611  -0.0214998  -0.0004820   0.0010473
           HZ3           0.0124065  -0.0214886  -0.0214230   0.0021738  -0.0037651
           HX4          -0.0973708  -0.0000000  -0.0248258   0.0013256  -0.0000000
           HY4           0.0000000  -0.0177320  -0.0000000  -0.0000000   0.0002124
           HZ4          -0.0248129  -0.0000000  -0.0214230  -0.0043476   0.0000000
           HX5          -0.0376417  -0.0344846   0.0124129   0.0004907   0.0004820
           HY5          -0.0344846  -0.0774611   0.0214998   0.0004820   0.0010473
           HZ5           0.0124065   0.0214886  -0.0214230   0.0021738   0.0037651
                             CLZ2        HX3         HY3         HZ3         HX4     
           CLZ2          0.0068433
           HX3          -0.0003008   0.1281894
           HY3           0.0005210  -0.1298253   0.2780987
           HZ3          -0.0045097  -0.0450117   0.0779626   0.0879780
           HX4           0.0006016  -0.0123949  -0.0015110  -0.0039464   0.3530533
           HY4          -0.0000000   0.0287962   0.0033583   0.0100859  -0.0000000
           HZ4          -0.0045097   0.0107078   0.0016253   0.0063603   0.0900234
           HX5          -0.0003008   0.0112348   0.0151536  -0.0067614  -0.0123949
           HY5          -0.0005210  -0.0151536  -0.0202714   0.0084606   0.0015110
           HZ5          -0.0045097  -0.0067614  -0.0084606   0.0063603  -0.0039464
                             HY4         HZ4         HX5         HY5         HZ5     
           HY4           0.0532347
           HZ4           0.0000000   0.0879780
           HX5          -0.0287962   0.0107078   0.1281894
           HY5           0.0033583  -0.0016253   0.1298253   0.2780987
           HZ5          -0.0100859   0.0063603  -0.0450117  -0.0779626   0.0879780


 Mass Weighted 2nd Derivative Matrix Eigenvalues
     1-  10    0.000000    0.000000    0.000000    0.000000    0.000000    0.000000    0.022286    0.047512    0.047512    0.086342
    11-  15    0.096724    0.096724    0.393828    0.419337    0.419337

 Mass Weighted 2nd Derivative Matrix Eigenvectors
              1             2             3             4             5             6             7             8
    1    0.79555876   -0.17138461   -0.15631647    0.01404562    0.01181000    0.17517930    0.00000000    0.00000764
    2   -0.05926690    0.03758314    0.44422152   -0.10985597    0.05160760    0.70764138    0.00000000    0.36435666
    3    0.05054715    0.39485079   -0.15026105   -0.23377398   -0.01956486    0.04272427    0.78925837    0.00000000
    4    0.09361886    0.46395535   -0.04939850    0.84795915    0.14763554    0.13508217    0.00000000   -0.00000250
    5   -0.01869665   -0.03909746   -0.01909550   -0.14443706    0.98071999   -0.02491706    0.00000000   -0.11902025
    6    0.08684275    0.67837513   -0.25815666   -0.40163642   -0.03361349    0.07340262   -0.54273913    0.00000000
    7    0.11278082   -0.20784064   -0.43708396    0.00898315   -0.00578540    0.29667993   -0.00937851   -0.05771093
    8   -0.11101847   -0.06329931   -0.06874633   -0.01532943   -0.01628195    0.38323369    0.01624405   -0.15064604
    9    0.08302067    0.06912676   -0.11947949   -0.10376802    0.06273746   -0.08330397    0.16477256    0.60754210
   10    0.27077448   -0.07366046   -0.05222186   -0.02201537   -0.00061084    0.05599931    0.01875702   -0.00000246
   11    0.16263459    0.16910758    0.59785438   -0.06902044   -0.00731934   -0.03363737    0.00000000   -0.25059519
   12   -0.10821898    0.18756787   -0.02237970    0.01177736    0.00662101   -0.00363112    0.16477256    0.00001471
   13    0.42876815    0.06051972    0.33264024   -0.05301389    0.00456373   -0.18468130   -0.00937851    0.05770181
   14   -0.11101847   -0.06329931   -0.06874633   -0.01532943   -0.01628195    0.38323369   -0.01624405   -0.15064362
   15    0.06912673    0.08645381    0.01127354   -0.11117261   -0.08636148    0.12406498    0.16477256   -0.60755681
              9            10            11            12            13            14            15
    1    0.36435666    0.00000001   -0.00000158   -0.22102919   -0.00000001   -0.31724519   -0.00000189
    2   -0.00000764    0.00000000   -0.22102918    0.00000158    0.00000000    0.00000189   -0.31724519
    3    0.00000000   -0.34504884    0.00000000   -0.00000003   -0.14182231    0.00000000    0.00000000
    4   -0.11902025    0.00000000   -0.00000012   -0.01717205    0.00000000    0.00136579    0.00000000
    5    0.00000250    0.00000000   -0.01717205    0.00000012    0.00000000    0.00000000    0.00136579
    6    0.00000000   -0.05679062    0.00000000    0.00000000   -0.00029970    0.00000000    0.00000000
    7   -0.21727718    0.09107366    0.37397457    0.50418903   -0.27377172    0.17365312   -0.32682566
    8   -0.05770321   -0.15774429    0.07236988    0.37397044    0.47418652   -0.32683000    0.55103618
    9   -0.35078158    0.50930775    0.26656874   -0.15390602    0.16378322   -0.11417207    0.19774910
   10   -0.11732805   -0.18214738   -0.00000102   -0.14354504    0.54754350    0.73973157    0.00000440
   11    0.00000526    0.00000000    0.72010393   -0.00000514    0.00000000    0.00000009   -0.01504232
   12    0.70153769    0.50930770    0.00000220    0.30780836    0.16378324    0.22834177    0.00000136
   13   -0.21727960    0.09107366   -0.37396737    0.50419436   -0.27377172    0.17364923    0.32682773
   14    0.05770953    0.15774429    0.07236454   -0.37397148   -0.47418652    0.32682344    0.55104007
   15   -0.35075609    0.50930775   -0.26657094   -0.15390222    0.16378322   -0.11416972   -0.19775046

   Low Vibration      Wavenumber
        Nr             [1/cm] 
        1                0.00
        2                0.00
        3                0.00
        4                0.00
        5                0.00
        6                0.00

     Vibration        Wavenumber
        Nr             [1/cm] 
        1              767.40
        2             1120.49
        3             1120.49
        4             1510.48
        5             1598.72
        6             1598.72
        7             3225.95
        8             3328.79
        9             3328.79

 FREQUENCIES * CALCULATION OF NORMAL MODES FOR HF-SCF


 Atomic Coordinates

  Nr  Atom  Charge       X              Y              Z

   1   C     6.00   -0.000000000    0.000000000   -2.336743237
   2   CL   17.00   -0.000000000    0.000000000    1.045124108
   3   H     1.00    0.967738137   -1.676171621   -2.971791305
   4   H     1.00   -1.935476273   -0.000000000   -2.971791305
   5   H     1.00    0.967738137    1.676171621   -2.971791305

 Gradient norm at reference geometry: 0.30172D-04

 Normal Modes

                              1 A`        2 A``       3 A`        4 A`        5 A``
 Wavenumbers [cm-1]          767.40     1120.49     1120.49     1510.48     1598.72
 Intensities [km/mol]          0.00        0.00        0.00        0.00        0.00
 Intensities [relative]        0.00        0.00        0.00        0.00        0.00
           CX1              0.00000     0.00000     0.10513     0.00000    -0.00000
           CY1              0.00000     0.10513    -0.00000     0.00000    -0.06378
           CZ1              0.22773    -0.00000    -0.00000    -0.09956    -0.00000
           CLX2            -0.00000    -0.00000    -0.01999     0.00000    -0.00000
           CLY2            -0.00000    -0.01999     0.00000     0.00000    -0.00288
           CLZ2            -0.09115     0.00000     0.00000    -0.00954    -0.00000
           HX3             -0.00934    -0.05748    -0.21642     0.09071     0.37250
           HY3              0.01618    -0.15005    -0.05748    -0.15712     0.07208
           HZ3              0.16412     0.60514    -0.34940     0.50730     0.26552
           HX4              0.01868    -0.00000    -0.11687    -0.18143    -0.00000
           HY4             -0.00000    -0.24961     0.00001    -0.00000     0.71726
           HZ4              0.16412     0.00001     0.69877     0.50730     0.00000
           HX5             -0.00934     0.05747    -0.21642     0.09071    -0.37249
           HY5             -0.01618    -0.15005     0.05748     0.15712     0.07208
           HZ5              0.16412    -0.60516    -0.34937     0.50730    -0.26552

                              6 A`        7 A`        8 A`        9 A``
 Wavenumbers [cm-1]         1598.72     3225.95     3328.79     3328.79
 Intensities [km/mol]          0.00        0.00        0.00        0.00
 Intensities [relative]        0.00        0.00        0.00        0.00
           CX1             -0.06378    -0.00000    -0.09154    -0.00000
           CY1              0.00000    -0.00000     0.00000    -0.09154
           CZ1             -0.00000    -0.04092     0.00000     0.00000
           CLX2            -0.00288    -0.00000     0.00023     0.00000
           CLY2             0.00000    -0.00000    -0.00000     0.00023
           CLZ2            -0.00000    -0.00005    -0.00000     0.00000
           HX3              0.50220    -0.27269     0.17297    -0.32554
           HY3              0.37249     0.47232    -0.32554     0.54886
           HZ3             -0.15330     0.16314    -0.11372     0.19697
           HX4             -0.14298     0.54538     0.73681     0.00000
           HY4             -0.00001     0.00000     0.00000    -0.01498
           HZ4              0.30659     0.16314     0.22744     0.00000
           HX5              0.50220    -0.27269     0.17296     0.32554
           HY5             -0.37250    -0.47232     0.32553     0.54887
           HZ5             -0.15329     0.16314    -0.11372    -0.19697


 Normal Modes of low/zero frequencies

                                  1           2           3           4           5
 Wavenumbers [cm-1]            0.00        0.00        0.00        0.00        0.00
 Intensities [km/mol]          0.00        0.00        0.00        0.00        0.00
 Intensities [relative]        0.00        0.00        0.00        0.00        0.00
           CX1              0.22955    -0.04945    -0.04510     0.00405     0.00341
           CY1             -0.01710     0.01084     0.12818    -0.03170     0.01489
           CZ1              0.01459     0.11393    -0.04336    -0.06745    -0.00565
           CLX2             0.01572     0.07792    -0.00830     0.14241     0.02480
           CLY2            -0.00314    -0.00657    -0.00321    -0.02426     0.16471
           CLZ2             0.01459     0.11393    -0.04336    -0.06745    -0.00565
           HX3              0.11234    -0.20702    -0.43536     0.00895    -0.00576
           HY3             -0.11058    -0.06305    -0.06848    -0.01527    -0.01622
           HZ3              0.08269     0.06885    -0.11901    -0.10336     0.06249
           HX4              0.26971    -0.07337    -0.05202    -0.02193    -0.00061
           HY4              0.16199     0.16844     0.59549    -0.06875    -0.00729
           HZ4             -0.10779     0.18683    -0.02229     0.01173     0.00659
           HX5              0.42708     0.06028     0.33133    -0.05280     0.00455
           HY5             -0.11058    -0.06305    -0.06848    -0.01527    -0.01622
           HZ5              0.06885     0.08611     0.01123    -0.11073    -0.08602

                                  6
 Wavenumbers [cm-1]            0.00
 Intensities [km/mol]          0.00
 Intensities [relative]        0.00
           CX1              0.05055
           CY1              0.20418
           CZ1              0.01233
           CLX2             0.02269
           CLY2            -0.00418
           CLZ2             0.01233
           HX3              0.29551
           HY3              0.38172
           HZ3             -0.08298
           HX4              0.05578
           HY4             -0.03350
           HZ4             -0.00362
           HX5             -0.18395
           HY5              0.38172
           HZ5              0.12358


 Frequencies dumped to record   5400.2
 Frequency information read from record  5400.2

 Zero point energy:  0.04009534 [H]     8799.91 [1/CM]      105.27 [KJ/MOL]


 **********************************************************************************************************************************
 DATASETS  * FILE   NREC   LENGTH (MB)   RECORD NAMES
              1      19       34.14       500      610      700      900      950      970     1000      129      960     1100   
                                          VAR    BASINP    GEOM    SYMINP    ZMAT    AOBASIS   BASIS     P2S    ABASIS      S 
                                         1400     1410     1200     1210     1080     1600     1650     1300     1700   
                                           T        V       H0       H01     AOSYM     SMH    MOLCAS    ERIS     OPER   

              2       7        0.56       700     1000      520     2100     5300     5450     5400   
                                         GEOM     BASIS   MCVARS     RHF     HESS     NMOD     FREQ   

              4       5        1.00      4100     4000     4200     4300     4400   

 PROGRAMS   *        TOTAL      FREQ      OPTG    HF-SCF       INT
 CPU TIMES  *         8.49      4.45      3.50      0.13      0.31
 REAL TIME  *         8.94 SEC
 DISK USED  *        52.69 MB
 **********************************************************************************************************************************

 Dump information in style MOLDEN to ch3cl.molden                                                                    

 Molecular orbitals read from record     2100.2  Type=RHF/CANONICAL  
 Occupation numbers read from record     2100.2  Type=RHF/RHF  
 Orbital energies read from record       2100.2  Type=RHF/CANONICAL  
 Redundancy group numbers read from rec  2100.2  Type=RHF/RHF  

 DUMP ORBITAL  1.1 AS ORBITAL    1  occ=    2.0000  eig= -104.8250  GROUP=   2
 DUMP ORBITAL  2.1 AS ORBITAL    2  occ=    2.0000  eig=  -11.2927  GROUP=   2
 DUMP ORBITAL  3.1 AS ORBITAL    3  occ=    2.0000  eig=  -10.5513  GROUP=   2
 DUMP ORBITAL  4.1 AS ORBITAL    4  occ=    2.0000  eig=   -8.0195  GROUP=   2
 DUMP ORBITAL  5.1 AS ORBITAL    5  occ=    2.0000  eig=   -8.0166  GROUP=   2
 DUMP ORBITAL  6.1 AS ORBITAL    6  occ=    2.0000  eig=   -8.0166  GROUP=   2
 DUMP ORBITAL  7.1 AS ORBITAL    7  occ=    2.0000  eig=   -1.1303  GROUP=   2
 DUMP ORBITAL  8.1 AS ORBITAL    8  occ=    2.0000  eig=   -0.9213  GROUP=   2
 DUMP ORBITAL  9.1 AS ORBITAL    9  occ=    2.0000  eig=   -0.6243  GROUP=   2
 DUMP ORBITAL 10.1 AS ORBITAL   10  occ=    2.0000  eig=   -0.6243  GROUP=   2
 DUMP ORBITAL 11.1 AS ORBITAL   11  occ=    2.0000  eig=   -0.5462  GROUP=   2
 DUMP ORBITAL 12.1 AS ORBITAL   12  occ=    2.0000  eig=   -0.4373  GROUP=   2
 DUMP ORBITAL 13.1 AS ORBITAL   13  occ=    2.0000  eig=   -0.4373  GROUP=   2

 Total charge:      26.000000
 Frequency information read from record  5400.2

 **********************************************************************************************************************************

 HF/6-311G(D,P)//HF/6-311G(D,P) energy=   -499.130778443334

    OPTG(HF-SCF)          HF-SCF
   -499.13077844   -499.13048880
 **********************************************************************************************************************************
 Molpro calculation terminated
