[Molden Format]
[Molpro variables]
_NUMVAR=  1070.000000000000    
_AVOGAD= 0.6022140760000000E+24
_BOLTZ= 0.1380649000000000E-22
_CLIGHTSI=  299792458.0000000    
_JOULE= 0.4359744722207100E-17
_JPCAL=  4.184000000000000    
_PLANCK= 0.6626070150000000E-33
_BOHR= 0.5291772109030000E-10
_ECHARG= 0.1602176634000000E-18
_ENULL= 0.8854187812800001E-11
_MU= 0.1660539066600000E-26
_EMASS= 0.9109383701500001E-30
_AMU2AU=  1822.888486217313    
_CLIGHT=  29979245800.00000    
_EV= 0.3674932217565494E-01
_KJOULE= 0.3808798847133432E-03
_KJOULE/MOL= 0.3808798847133432E-03
_CM= 0.4556335252912009E-05
_CM-1= 0.4556335252912009E-05
_DEB2SI= 0.3335640951981520E-29
_KCAL= 0.1593601437640628E-02
_KCAL/MOL= 0.1593601437640628E-02
_KELVIN= 0.3166811563455608E-05
_HERTZ= 0.1519829846057038E-15
_HZ= 0.1519829846057038E-15
_TOA= 0.5291772109030000    
_TOANG= 0.5291772109030000    
_TORAD= 0.1745329251994330E-01
_TOCM=  219474.6313631965    
_TODEBYE=  2.541746473194078    
_TOE= 0.4803204712570263E-09
_TOEV=  27.21138624598803    
_TOHERTZ=  6579683920501656.    
_TOHZ=  6579683920501656.    
_TOK=  315775.0248040668    
_TOKCAL=  627.5094740630558    
_TOKELVIN=  315775.0248040668    
_TOKJ=  2625.499639479825    
_TOKJOULE=  2625.499639479825    
_TOKG= 0.1660539066600000E-26
_ANG=  1.889726124625770    
_ANGSTROM=  1.889726124625770    
_RPAREF=  0.000000000000000    
_RPADISS=  0.000000000000000    
_IGNORE_UNDEF=  2.000000000000000    
_STRICTCHECK=  0.000000000000000    
!SEWARD=  0.000000000000000    
!MULTI=  0.000000000000000    
!DFMULTI=  0.000000000000000    
!NUMHESS=  0.000000000000000    
_SEW_ONEEL=  0.000000000000000    
_CPPDONE=FALSE
_DKROLL_DONE=  0.000000000000000    
_FNUC_DONE=  0.000000000000000    
_FOCKDONE=TRUE
_GRADONE=FALSE
_HESSDONE=TRUE
_INTDONE=TRUE
_SCFDONE=TRUE
_MODUL_BLOCK=FALSE
_MODUL_SLATER=TRUE
_MODUL_MRCC=FALSE
_MODUL_NBO6=FALSE
_MODUL_NECI=FALSE
_MODUL_AIMS=TRUE
_MODUL_HDF5=FALSE
_MODUL_GECCO=FALSE
_ISWINDOWS=FALSE
_MRCC_EXEC=
_FITC_AO_SAVED=FALSE
_FITC_MO_SAVED=FALSE
_LSTYP=SEWARD
_INTYP=INTS
_GEOMTYP=XYZ
_GRADTYP=ALASKA
_DIRECT=FALSE
_DKHO= -1.000000000000000    
_FNUC=  0.000000000000000    
_SYNCM=  0.000000000000000    
_BASIS=6-311G(D,P)
_ZCENTRE=MASS
_ZORIENT=  1.000000000000000    
_NELEC=  26.00000000000000    
!SPIN=  0.000000000000000    
_OPTCONV= 0.1945451746157053E-03
_QSDSTEP=  0.000000000000000    
_QSDIRC=  0.000000000000000    
_PROGRAM=FREQ
_CPUSTEP=  4.449999999999999    
_SYSSTEP= 0.1300000000000000    
_WALLSTEP=  4.570000000000000    
!DFSCF=  0.000000000000000    
!SCSGRD=  0.000000000000000    
_NCEN=  5.000000000000000    
_CPUTOT=  8.490000000000000    
_DFTEXFAC=  1.000000000000000    
_DMX=-0.3457273595013077E-09
_DMY=-0.1843468953877103E-14
_DMZ=-0.9122265385935924    
_DMX_SCF=-0.3457273595013077E-09
_DMY_SCF=-0.1843468953877103E-14
_DMZ_SCF=-0.9122265385935924    
_FREQUENCIES= 0.2772238406450207E-04
_HOMO=  13.10000000000000    
_EHOMO=-0.4372941317852520    
_LUMO=  14.10000000000000    
_ELUMO= 0.1418603569603427    
_ENERGY= -499.1307784433336    
_ENERGY_METHOD=HF
_ENERGY_BASIS=6-311G(D,P)
_GEOMETRY_METHOD=HF
_GEOMETRY_BASIS=6-311G(D,P)
_ENUC=  51.33011867910930    
_GRADENERG= -499.1307784409384    
_GRADEXFAC=  9999.000000000000    
_GRADMETHOD=  1.000000000000000    
_NMRMETHOD=  0.000000000000000    
_NMRMAGNET=  0.000000000000000    
_VIRIAL= 0.4202477873531813E-04
!GRID_FREEZE= -1.000000000000000    
!NEESE_INDEX=  0.000000000000000    
_ITERATIONS=  2.000000000000000    
_LASTNELEC=  26.00000000000000    
_LASTSPIN=  0.000000000000000    
_LASTSYM=  1.000000000000000    
_MPP_PROG=  0.000000000000000    
_MSNSTATES=  0.000000000000000    
_RS2PHASE=  0.000000000000000    
_NPROC_MPP=  1.000000000000000    
_NPROC_SMP=  6.000000000000000    
_NUMSTEP=  0.000000000000000    
_OPTCONVMX= 0.1846675284341178E-03
_OPTCONVRMS= 0.1123207089339202E-03
_OPTGRAD= 0.3611463803888223E-04
_OPTGRADMX= 0.3601467442746824E-04
_OPTGRADRMS= 0.2085079599343456E-04
!GMAXLAST= 0.3601467442746824E-04
!DMAXLAST= 0.1846675284341178E-03
!DELAST= 0.1366100889299560E-05
_OPTSTEP=  4.000000000000000    
_ORBITAL=  2100.200000000000    
_PI=  3.141592653589793    
_SEIG_MIN= 0.1070487726098985E-01
_SEWPROP=TRUE
_STATUS=  1.000000000000000    
_SYSTOT= 0.4500000000000000    
_VERSION=  2024001.000000000    
_WALLTOT=  8.940000000000000    
_ZPE= 0.4009533516820019E-01
_DATE=30-Sep-24
_LASTORB=0
_OUTPUT=/home/lme/Theoretische_Chemie/Nomodeco/deuterium_calculations/CH3Cl/CH3Cl.molpro/run/CH3Cl_3.molpro/CH3Cl_3.out
_PGROUP=C1
_TIME=10:41:43
_LIBMOL=/usr/local/molpro/molpro_2024.1.0_sockets/lib/
_VIGRDC=  0.000000000000000    
!VIBCNT=  0.000000000000000    
!SURFREC=  0.000000000000000    
!XSURFREC=  0.000000000000000    
!XPOLYREC=  0.000000000000000    
!ROTREC=  0.000000000000000    
!POLYREC=  0.000000000000000    
!DIPREC=  0.000000000000000    
!DIP4DREC=  0.000000000000000    
!DIPROT=  0.000000000000000    
!DIP4DROT=  0.000000000000000    
!PTREC=  0.000000000000000    
!PT4DREC=  0.000000000000000    
!VSCFREC=  0.000000000000000    
!VCIREC=  0.000000000000000    
!PVCIREC=  0.000000000000000    
!VMP2REC=  0.000000000000000    
!VMCSCFREC=  0.000000000000000    
!VMRCIREC=  0.000000000000000    
!VIBSTATEREC=  0.000000000000000    
!VIBSTATECNT=  0.000000000000000    
!VIBINFO=  0.000000000000000    
!GAREC=  0.000000000000000    
!SCFORB=  21002.00000000000    
!DEFCORE=  6.000000000000000    
!SCORE=  1.000000000000000    
!NEWMOL=  0.000000000000000    
!NEWSYM=  0.000000000000000    
_SLFILES=slscratch
_NGSSTO=  9.000000000000000    
_SIN=SIN
_COS=COS
_TAN=TAN
_ACOS=ACOS
_ASIN=ASIN
_ATAN=ATAN
_COSH=COSH
_SINH=SINH
_TANH=TANH
_ABS=ABS
_MOD=MOD
_ERF=ERF
_REFC=REFC
_ERFC=ERFC
_HYPOT=HYPOT
_J0=J0
_J1=J1
_JN=JN
_GAMMA=GAMMA
_LGAMMA=LGAMMA
_Y0=Y0
_Y1=Y1
_YN=YN
_EXP=EXP
_LOG=LOG
_LOG10=LOG10
_SQRT=SQRT
_INT=INT
_NINT=NINT
_MAX=MAX
_MIN=MIN
_COSMO=  0.000000000000000    
_COSMOIT=  0.000000000000000    
_COSMOES=  0.000000000000000    
_COSMOEDS=  0.000000000000000    
_COSMOEC=  0.000000000000000    
_COSMOEDCORR=  0.000000000000000    
_FEPSI=  1.000000000000000    
_SL_IsMM=  0.000000000000000    
_SL_NSYM=  1.000000000000000    
_SL_System_BitSw=  0.000000000000000    
_SL_Unique_atoms=  0.000000000000000    
_SL_GRAD=  0.000000000000000    
_SL_MAXUPD_Hess=  5.000000000000000    
_SL_N_PRINT_COD=  5.000000000000000    
_SL_PRINT_CODES=  0.000000000000000    
_SL_BasType=  0.000000000000000    
_SL_Energy_Pred=  0.000000000000000    
_SL_New_Coords=  0.000000000000000    
_SL_Total_Nuclea=  0.000000000000000    
_SL_Highest_Mltp=  0.000000000000000    
_SL_Ref_Geom=  0.000000000000000    
_SL_Symmetry_ope=  1.000000000000000    
_SL_agrad=  0.000000000000000    
_SL_GrdMax=  0.000000000000000    
_SL_GrdNorm=  0.000000000000000    
_SL_GrdRMS=  0.000000000000000    
_SL_Hss_Q=  0.000000000000000    
_SL_Hss_X=  0.000000000000000    
_SL_BMxOld=  0.000000000000000    
_SL_KtB=  0.000000000000000    
_SL_TROld=  0.000000000000000    
_SL_No_of_Intern=  0.000000000000000    
_SL_Hess=  0.000000000000000    
_SL_K=  0.000000000000000    
!LATTICE= -1.000000000000000    
!NEWLATTICE=  0.000000000000000    
!LATGRAD_VAR=FALSE
!SEW_LATTICE=  1.000000000000000    
!AIC_ONEEL=  0.000000000000000    
!LOCAL=  0.000000000000000    
!SAVEDOM= -1.000000000000000    
!RESTDOM= -1.000000000000000    
!SAVEDOM_HF= -1.000000000000000    
!RESTDOM_HF= -1.000000000000000    
!HESSREC=  5300.200000000000    
!FREQREC=  5400.200000000000    
!NMODREC=  5450.200000000000    
!GTASKS=  0.000000000000000    
!HTASKS=  0.000000000000000    
!SAVEDOM_EOM= -1.000000000000000    
!RESTDOM_EOM= -1.000000000000000    
!GRADSTATE= -1.000000000000000    
!DEBUG=  0.000000000000000    
!CFIT_CPHF=  0.000000000000000    
!RDOMAUX_CPHF=  0.000000000000000    
!THRAO_CPHF= 0.1000000000000000E-11
!THRMO_CPHF= 0.1000000000000000E-11
!THROV_CPHF= 0.1000000000000000E-13
!THRSW_CPHF= 0.1000000000000000E-11
!THRPROD_CPHF= 0.1000000000000000E-11
!THRAOPR_CPHF= 0.1000000000000000E-11
!CFIT_SCFGRD=  0.000000000000000    
!RDOMAUX_SCFGRD=  0.000000000000000    
!THRAO_SCFGRD= 0.1000000000000000E-11
!THRMO_SCFGRD= 0.1000000000000000E-11
!THROV_SCFGRD= 0.1000000000000000E-13
!THRSW_SCFGRD= 0.1000000000000000E-11
!THRPROD_SCFGRD= 0.1000000000000000E-11
!THRAOPR_SCFGRD= 0.1000000000000000E-11
!LOCFIT_SCF=  0.000000000000000    
!LOCFIT_MP2=  0.000000000000000    
_RIDOM=  0.000000000000000    
!CC2_METHOD=  0.000000000000000    
_BASIS2006=FALSE
_SVDDEL= -1.000000000000000    
_SVDDELA= -1.000000000000000    
_SVDDELP= -1.000000000000000    
_SVDDELF= -1.000000000000000    
_SVDDELS= -1.000000000000000    
_SVDDEL_ABS= -1.000000000000000    
_SVDDELA_ABS= -1.000000000000000    
_SVDDELP_ABS= -1.000000000000000    
_SVDDELF_ABS= -1.000000000000000    
_SVDDELS_ABS= -1.000000000000000    
_MAXBASIS=  0.000000000000000    
!OPT_CONICAL=  0.000000000000000    
!CLEARSP_JGRID=  0.000000000000000    
_GRDHYBR=  0.000000000000000    
_STATEGRAD=  1.000000000000000    
_4EXT_NDISKS=  1.000000000000000    
!EMBEDFLAG=  1.000000000000000    
!EMBED=FALSE
!EMBED_F12=FALSE
!EMBEDNUC=  0.000000000000000    
_EMBEDENERGY=  0.000000000000000    
!EMBED_DFC=FALSE
!NUM_VOIDS=  0.000000000000000    
_IBODY=  0.000000000000000    
_EMBE_CORR=  0.000000000000000    
!EMBED_PROJ=FALSE
!EMB_PROJ_ZMU=  1000000.000000000    
!CORRECTION_HF=  0.000000000000000    
!EMBED_AORB=  0.000000000000000    
!EMBED_NACORR=  0.000000000000000    
!EMBED_MP2=FALSE
!EMBED_TRUNC_PERTURBATION=FALSE
!EMBED_FROZEN=  0.000000000000000    
!EMBED_ACTIVE=  0.000000000000000    
_CHANGE_BASIS=FALSE
_RESTORE_BASIS=FALSE
_FIX_EMBED_GUESS=FALSE
_EMBED_SCF=FALSE
_NEOBAS=FALSE
_NEOOVE=FALSE
_PRINEO=FALSE
_HUZINAGA_T=FALSE
_HUZINAGA_F=FALSE
_HUZINAGA=FALSE
_HUZINAGA_CORRECT=FALSE
!FASTLATGRAD=  1.000000000000000    
!FASTVLAMBDA= -1.000000000000000    
!IFORCE= -1.000000000000000    
!USESYM= -1.000000000000000    
_SINDEX=  0.000000000000000    
_AVDOM_OSV=  0.000000000000000    
_AVDOM_PNO=  0.000000000000000    
_AVDOM_PNOCC=  0.000000000000000    
_AVDOM_TNO=  0.000000000000000    
_AVDOM_TNOIT=  0.000000000000000    
_AVDOM_PAO=  0.000000000000000    
_AVDOM_LMO=  0.000000000000000    
_CC2OSV_FLAG=  0.000000000000000    
_EOMCCSD_CONV=FALSE
_TMADC2_FLAG=FALSE
_PROPADC2_FLAG=FALSE
_LEN_VirQ=  0.000000000000000    
_GRDCC2LR_FLAG=FALSE
_GRDADC2_FLAG=FALSE
_RO_VGLOBAL=  0.000000000000000    
_OPT=FALSE
_FREQ=FALSE
_HESS=FALSE
_CMRCC_callName=EMPTY
_CMRCC_callCount=  0.000000000000000    
_GECCO_CIROOT=  1.000000000000000    
_SYM_CATION=  1.000000000000000    
_MON_A=FALSE
_MON_B=FALSE
_MAXGEOM=  100.0000000000000    
!MAXGEOM=  100.0000000000000    
_NCORE=  0.000000000000000    
_NLARGECORE=  0.000000000000000    
GX1=-0.4212537246509370E-33
GY1= 0.3671904522821456E-17
GZ1= -1.236551268608789    
GX2=-0.4212537246509370E-33
GY2= 0.3671904522821456E-17
GZ2= 0.5530558604894031    
GX3= 0.5121049680313773    
GY3=-0.8869918234387809    
GZ3= -1.572604233939404    
GX4= -1.024209936062754    
GY4=-0.1138290402074651E-15
GZ4= -1.572604233939404    
GX5= 0.5121049680313771    
GY5= 0.8869918234387809    
GZ5= -1.572604233939404    
CX1=-0.7960541685687865E-33
CY1= 0.6938893903907228E-17
CZ1= -2.336743236729166    
CLX2=-0.7960541685687865E-33
CLY2= 0.6938893903907228E-17
CLZ2=  1.045124107944210    
HX3= 0.9677381366395386    
HY3= -1.676171621081713    
HZ3= -2.971791304572388    
HX4= -1.935476273279077    
HY4=-0.2151057110211241E-15
HZ4= -2.971791304572388    
HX5= 0.9677381366395381    
HY5=  1.676171621081713    
HZ5= -2.971791304572388    
[Atoms] Angs
C     1    6        -0.0000000000        0.0000000000       -1.2365512686
CL    2   17        -0.0000000000        0.0000000000        0.5530558605
H     3    1         0.5121049680       -0.8869918234       -1.5726042339
H     4    1        -1.0242099361       -0.0000000000       -1.5726042339
H     5    1         0.5121049680        0.8869918234       -1.5726042339
[GTO]
   1 0
 s    6  1.00
  0.4563240000D+04  0.1966650249D-02
  0.6820240000D+03  0.1523060193D-01
  0.1549730000D+03  0.7612690966D-01
  0.4445530000D+02  0.2608010331D+00
  0.1302900000D+02  0.6164620782D+00
  0.1827730000D+01  0.2210060280D+00
 s    3  1.00
  0.2096420000D+02  0.1146600807D+00
  0.4803310000D+01  0.9199996477D+00
  0.1459330000D+01 -0.3030682134D-02
 s    1  1.00
  0.4834560000D+00  0.1000000000D+01
 s    1  1.00
  0.1455850000D+00  0.1000000000D+01
 p    3  1.00
  0.2096420000D+02  0.4024869267D-01
  0.4803310000D+01  0.2375939567D+00
  0.1459330000D+01  0.8158538515D+00
 p    1  1.00
  0.4834560000D+00  0.1000000000D+01
 p    1  1.00
  0.1455850000D+00  0.1000000000D+01
 d    1  1.00
  0.6260000000D+00  0.1000000000D+01
  
   2 0
 s    6  1.00
  0.1058190000D+06  0.7380002465D-03
  0.1587200000D+05  0.5718001910D-02
  0.3619650000D+04  0.2949500985D-01
  0.1030800000D+04  0.1172860392D+00
  0.3399080000D+03  0.3629491212D+00
  0.1245380000D+03  0.5841491951D+00
 s    3  1.00
  0.1245380000D+03  0.1341769734D+00
  0.4951350000D+02  0.6242498762D+00
  0.2080560000D+02  0.2917559421D+00
 s    1  1.00
  0.6583460000D+01  0.1000000000D+01
 s    1  1.00
  0.2564680000D+01  0.1000000000D+01
 s    1  1.00
  0.5597630000D+00  0.1000000000D+01
 s    1  1.00
  0.1832730000D+00  0.1000000000D+01
 p    5  1.00
  0.5897760000D+03  0.2390999685D-02
  0.1398490000D+03  0.1850399756D-01
  0.4514130000D+02  0.8137698928D-01
  0.1687330000D+02  0.2215519708D+00
  0.6741100000D+01  0.7725688983D+00
 p    2  1.00
  0.6741100000D+01 -0.1572243813D+01
  0.2771520000D+01  0.9923888817D+00
 p    1  1.00
  0.1023870000D+01  0.1000000000D+01
 p    1  1.00
  0.3813680000D+00  0.1000000000D+01
 p    1  1.00
  0.1094370000D+00  0.1000000000D+01
 d    1  1.00
  0.7500000000D+00  0.1000000000D+01
  
   3 0
 s    3  1.00
  0.3386500000D+02  0.2549381454D-01
  0.5094790000D+01  0.1903731086D+00
  0.1158790000D+01  0.8521614860D+00
 s    1  1.00
  0.3258400000D+00  0.1000000000D+01
 s    1  1.00
  0.1027410000D+00  0.1000000000D+01
 p    1  1.00
  0.7500000000D+00  0.1000000000D+01
  
   4 0
 s    3  1.00
  0.3386500000D+02  0.2549381454D-01
  0.5094790000D+01  0.1903731086D+00
  0.1158790000D+01  0.8521614860D+00
 s    1  1.00
  0.3258400000D+00  0.1000000000D+01
 s    1  1.00
  0.1027410000D+00  0.1000000000D+01
 p    1  1.00
  0.7500000000D+00  0.1000000000D+01
  
   5 0
 s    3  1.00
  0.3386500000D+02  0.2549381454D-01
  0.5094790000D+01  0.1903731086D+00
  0.1158790000D+01  0.8521614860D+00
 s    1  1.00
  0.3258400000D+00  0.1000000000D+01
 s    1  1.00
  0.1027410000D+00  0.1000000000D+01
 p    1  1.00
  0.7500000000D+00  0.1000000000D+01


[MO]
 Sym=      1.1
 Ene=    -104.8250
 Spin= Alpha
 Occup=    2.000000
1 0.000000031156281
2 0.000000807037695
3 0.000000518491867
4 0.000037819745267
5 -0.000000000001167
6 -0.000000000000001
7 0.000008203673786
8 0.000000000003589
9 0.000000000000001
10 -0.000029386452588
11 -0.000000000004738
12 0.000000000000000
13 0.000029295155590
14 0.000007164624450
15 0.000007164623974
16 -0.000014329248424
17 0.000000000000000
18 -0.000000000000143
19 -0.000000000000000
20 0.41173267898765
21 0.65466344517365
22 0.012078278173155
23 -0.000899611126510
24 0.000201791830046
25 -0.000126818822914
26 -0.000000000000775
27 0.000000000000000
28 -0.000155185240455
29 -0.000000000000972
30 0.000000000000000
31 -0.000099868673922
32 0.000000000000538
33 -0.000000000000000
34 0.000097970607446
35 0.000000000000478
36 -0.000000000000000
37 -0.000063177737981
38 -0.000000000000965
39 -0.000000000000000
40 0.000046878978274
41 -0.000004553621169
42 -0.000004553621377
43 0.000009107242546
44 -0.000000000000000
45 -0.000000000000203
46 0.000000000000000
47 -0.000000918927188
48 -0.000011463152635
49 0.000009669205210
50 0.000002340545990
51 -0.000004053946293
52 -0.000000092542993
53 -0.000000918929139
54 -0.000011463144976
55 0.000009669189083
56 -0.000004681094039
57 -0.000000000000000
58 -0.000000092543055
59 -0.000000918927188
60 -0.000011463152637
61 0.000009669205211
62 0.000002340545991
63 0.000004053946294
64 -0.000000092542994
 Sym=      2.1
 Ene=     -11.2927
 Spin= Alpha
 Occup=    2.000000
1 0.56343419412881
2 0.46656159519959
3 0.004153827237782
4 -0.001229770957591
5 -0.000000000000215
6 -0.000000000000000
7 0.001057194789297
8 -0.000000000027254
9 0.000000000000000
10 -0.000686782299941
11 -0.000000000005865
12 -0.000000000000001
13 0.000067506057441
14 0.000155686870185
15 0.000155686813701
16 -0.000311373683886
17 -0.000000000000000
18 -0.000000000000840
19 0.000000000000000
20 -0.000015880468376
21 -0.000047897316604
22 0.000106482770262
23 -0.000055871507936
24 0.000138057419640
25 0.000340688396347
26 0.000000000018991
27 0.000000000000000
28 0.000099324051997
29 0.000000000011912
30 0.000000000000000
31 0.000040184224454
32 -0.000000000015812
33 -0.000000000000000
34 -0.000025783123259
35 0.000000000016642
36 0.000000000000000
37 -0.000510643445471
38 -0.000000000008698
39 0.000000000000000
40 -0.000050394259105
41 -0.000126804255958
42 -0.000126804253830
43 0.000253608509787
44 -0.000000000000000
45 -0.000000000001998
46 -0.000000000000000
47 0.000351070060743
48 0.000093792016006
49 0.000238718123650
50 0.000002966396042
51 -0.000005137990206
52 0.000041009258370
53 0.000351070056588
54 0.000093791979106
55 0.000238718098495
56 -0.000005932868152
57 0.000000000000000
58 0.000041009231920
59 0.000351070060743
60 0.000093792016006
61 0.000238718123653
62 0.000002966396042
63 0.000005137990206
64 0.000041009258370
 Sym=      3.1
 Ene=     -10.5513
 Spin= Alpha
 Occup=    2.000000
1 -0.000117613660619
2 -0.000137389052616
3 0.000073068043997
4 0.004511460905171
5 0.000000000011191
6 0.000000000000000
7 0.000588089903702
8 -0.000000000040431
9 0.000000000000000
10 -0.001436046853588
11 0.000000000010223
12 -0.000000000000001
13 0.002886800397392
14 0.000340338014559
15 0.000340337993543
16 -0.000680676008102
17 0.000000000000000
18 0.000000000013916
19 0.000000000000001
20 -0.12194218364866
21 -0.33149409371493
22 0.51184303485961
23 0.60571716135093
24 0.042625610809005
25 -0.011831627481140
26 -0.000000000013577
27 -0.000000000000002
28 -0.005656399528346
29 -0.000000000010030
30 -0.000000000000001
31 -0.001485759563121
32 0.000000000008349
33 0.000000000000000
34 -0.000900761913521
35 -0.000000000007461
36 -0.000000000000000
37 -0.000059617952412
38 0.000000000009737
39 0.000000000000000
40 0.002789829736547
41 -0.000112138567722
42 -0.000112138565163
43 0.000224277132886
44 -0.000000000000000
45 0.000000000001596
46 -0.000000000000000
47 0.000011743007144
48 -0.001266449864072
49 0.000695654605758
50 0.000162225941026
51 -0.000280983572391
52 -0.000110981636000
53 0.000011743011550
54 -0.001266449938772
55 0.000695654674243
56 -0.000324451906682
57 0.000000000000000
58 -0.000110981637896
59 0.000011743007144
60 -0.001266449864071
61 0.000695654605759
62 0.000162225941026
63 0.000280983572391
64 -0.000110981636000
 Sym=      4.1
 Ene=      -8.0195
 Spin= Alpha
 Occup=    2.000000
1 0.000055576192594
2 0.000131564515536
3 -0.000217923783127
4 -0.000967594627602
5 0.000000000001762
6 0.000000000000001
7 -0.000123239296803
8 0.000000000000841
9 -0.000000000000001
10 -0.000295021324371
11 0.000000000048206
12 0.000000000000001
13 -0.000221787027877
14 0.000046353232830
15 0.000046353296798
16 -0.000092706529628
17 -0.000000000000000
18 -0.000000000007113
19 0.000000000000000
20 -0.000667343724796
21 -0.001855216391644
22 0.003481535253626
23 0.002732074687260
24 -0.000815593376565
25 0.000583110249850
26 -0.000000002457595
27 0.000000000001836
28 1.23010579743469
29 -0.000000000648546
30 0.000000000000488
31 0.32709589558496
32 -0.000000000095491
33 0.000000000000073
34 0.051725399817193
35 -0.000000000009743
36 -0.000000000000003
37 -0.003265470809142
38 0.000000000014551
39 0.000000000000001
40 0.000856971838374
41 0.000191256017002
42 0.000191256020366
43 -0.000382512037368
44 0.000000000000000
45 0.000000000000810
46 -0.000000000000000
47 -0.000028217601183
48 0.000318933912869
49 0.000093671984392
50 -0.000025069168542
51 0.000043421142324
52 0.000076027867667
53 -0.000028217584023
54 0.000318933886715
55 0.000093672164924
56 0.000050138442575
57 -0.000000000000000
58 0.000076027881381
59 -0.000028217601182
60 0.000318933912870
61 0.000093671984391
62 -0.000025069168541
63 -0.000043421142325
64 0.000076027867666
 Sym=      5.1
 Ene=      -8.0166
 Spin= Alpha
 Occup=    2.000000
1 -0.000000000000000
2 0.000000000000000
3 -0.000000000000000
4 -0.000000000000013
5 0.000000000023350
6 0.000002151936960
7 -0.000000000000001
8 0.000000000649071
9 0.000059835587155
10 0.000000000000004
11 -0.000000001009038
12 -0.000093015376745
13 0.000000000000000
14 -0.000000000015520
15 0.000000000015519
16 0.000000000000002
17 0.000001653085732
18 0.000000000714813
19 0.000065892583841
20 0.000000000000001
21 0.000000000000002
22 -0.000000000000005
23 -0.000000000000003
24 0.000000000000001
25 0.000000000000001
26 0.000013357688775
27 1.23134340375763
28 -0.000000000001806
29 0.000003550509164
30 0.32729434794167
31 -0.000000000000480
32 0.000000533792121
33 0.049206222780216
34 -0.000000000000076
35 -0.000000023500155
36 -0.002166300147146
37 0.000000000000004
38 0.000000008220491
39 0.000757784360022
40 -0.000000000000002
41 -0.000000000015506
42 0.000000000015506
43 -0.000000000000000
44 0.000001650492014
45 -0.000000003794179
46 -0.000349756354676
47 0.000020276465966
48 -0.000076110719707
49 0.000123413830944
50 0.000006416961672
51 -0.000009609484918
52 0.000019688935577
53 0.000000000253990
54 -0.000000000953415
55 0.000000001545937
56 -0.000000000144448
57 0.000001504984668
58 0.000000000246626
59 -0.000020276719958
60 0.000076111673132
61 -0.000123415376872
62 -0.000006417009410
63 -0.000009609624158
64 -0.000019689182202
 Sym=      6.1
 Ene=      -8.0166
 Spin= Alpha
 Occup=    2.000000
1 0.000000000001472
2 0.000000000018914
3 -0.000000000104198
4 -0.000000000591628
5 0.000002151888146
6 -0.000000000023346
7 -0.000000000017684
8 0.000059835908234
9 -0.000000000649092
10 0.000000000134226
11 -0.000093015167736
12 0.000000001009038
13 0.000000000033391
14 -0.000001431693444
15 0.000001431599468
16 0.000000000093975
17 -0.000000000017929
18 0.000065892463852
19 -0.000000000714809
20 -0.000000000001980
21 -0.000000000003333
22 -0.000000000002558
23 0.000000000029846
24 -0.000000000036429
25 0.000000000077464
26 1.23134340375456
27 -0.000013357688773
28 0.000000002462945
29 0.32729434793881
30 -0.000003550509161
31 0.000000000658009
32 0.049206222785864
33 -0.000000533792124
34 0.000000000102402
35 -0.002166300157680
36 0.000000023500157
37 -0.000000000012317
38 0.000757784299009
39 -0.000000008220493
40 -0.000000000029220
41 -0.000001429352196
42 0.000001429370312
43 -0.000000000018116
44 -0.000000000017904
45 -0.000349756334087
46 0.000000003794179
47 -0.000011706857882
48 0.000043943583039
49 -0.000071254643710
50 -0.000002200080727
51 0.000006417061603
52 -0.000011367673902
53 0.000023413353383
54 -0.000087884994972
55 0.000142506887938
56 -0.000013314118877
57 -0.000000000016327
58 0.000022735040935
59 -0.000011706417957
60 0.000043941931706
61 -0.000071251966086
62 -0.000002199941500
63 -0.000006416853107
64 -0.000011367246728
 Sym=      7.1
 Ene=      -1.1303
 Spin= Alpha
 Occup=    2.000000
1 -0.058479177983504
2 -0.096424247912572
3 0.24519856647887
4 0.10797223465339
5 0.000000000049912
6 -0.000000000000000
7 0.023434227451751
8 -0.000000000224131
9 -0.000000000000000
10 0.072545461809325
11 0.000000000062210
12 0.000000000000009
13 -0.002387148576464
14 -0.010321684984638
15 -0.010321685075749
16 0.020643370060388
17 0.000000000000001
18 0.000000000030296
19 -0.000000000000001
20 0.029708464559663
21 0.085861237451487
22 -0.16883089764100
23 -0.34080440832288
24 0.51147314896740
25 0.44493870990834
26 0.000000000015713
27 -0.000000000000000
28 0.050049157245613
29 0.000000000024266
30 -0.000000000000000
31 0.012668414491891
32 -0.000000000007552
33 0.000000000000000
34 -0.029869101911626
35 -0.000000000019029
36 -0.000000000000001
37 -0.078693355428348
38 0.000000000060067
39 0.000000000000000
40 -0.017773530852585
41 -0.012234458783816
42 -0.012234458748532
43 0.024468917532348
44 -0.000000000000000
45 -0.000000000024863
46 0.000000000000000
47 0.037695039350433
48 0.057141406527097
49 -0.007169435112479
50 -0.006462355696573
51 0.011193128440448
52 0.005130636258950
53 0.037695039398065
54 0.057141406174661
55 -0.007169434818230
56 0.012924711264564
57 -0.000000000000000
58 0.005130636214300
59 0.037695039350432
60 0.057141406527092
61 -0.007169435112497
62 -0.006462355696571
63 -0.011193128440446
64 0.005130636258948
 Sym=      8.1
 Ene=      -0.9213
 Spin= Alpha
 Occup=    2.000000
1 -0.085368975332034
2 -0.14173833746529
3 0.36615435332545
4 0.26961692326188
5 0.000000000078130
6 -0.000000000000002
7 -0.048795989451418
8 -0.000000000078352
9 -0.000000000000005
10 -0.061742583691060
11 0.000000000192077
12 0.000000000000025
13 -0.023766521095878
14 0.006466409176809
15 0.006466409225272
16 -0.012932818402080
17 0.000000000000002
18 -0.000000000051871
19 -0.000000000000000
20 -0.019834116910702
21 -0.057600341325854
22 0.11558372707422
23 0.22530674404168
24 -0.33978104940207
25 -0.36187742521393
26 -0.000000000034611
27 -0.000000000000000
28 0.053688954260405
29 0.000000000005048
30 -0.000000000000000
31 0.013288597398873
32 0.000000000030334
33 0.000000000000001
34 -0.037633008348643
35 0.000000000035671
36 -0.000000000000003
37 -0.081143268951285
38 0.000000000069029
39 0.000000000000002
40 -0.008070036544537
41 -0.008066898809364
42 -0.008066898758703
43 0.016133797568067
44 0.000000000000000
45 -0.000000000001246
46 0.000000000000001
47 0.083447191073160
48 0.11160429596184
49 0.002053027473398
50 -0.008998437073999
51 0.015585750172975
52 0.003575528558607
53 0.083447191006925
54 0.11160429612354
55 0.002053027596512
56 0.017996874104823
57 -0.000000000000001
58 0.003575528551419
59 0.083447191073157
60 0.11160429596183
61 0.002053027473331
62 -0.008998437073996
63 -0.015585750172973
64 0.003575528558606
 Sym=      9.1
 Ene=      -0.6243
 Spin= Alpha
 Occup=    2.000000
1 0.000000000008718
2 -0.000000000008558
3 0.000000000305724
4 -0.000000001262835
5 0.18720434080942
6 -0.000036693781543
7 -0.000000000020199
8 0.30290177788346
9 -0.000059371548834
10 -0.000000000196586
11 0.19820254432936
12 -0.000038849531198
13 -0.000000000046698
14 -0.024398436776628
15 0.024398436816687
16 -0.000000000040059
17 -0.000005522146522
18 -0.006444184754276
19 0.000001263119784
20 0.000000000001776
21 0.000000000002951
22 0.000000000001823
23 -0.000000000028010
24 -0.000000000090811
25 0.000000000414072
26 -0.10021072528789
27 0.000019642228599
28 -0.000000000105098
29 -0.023997635664506
30 0.000004703758444
31 -0.000000000047296
32 0.069398238957945
33 -0.000013602696405
34 0.000000000119401
35 0.17390554360947
36 -0.000034087094334
37 -0.000000000031019
38 0.059500171334616
39 -0.000011662583630
40 -0.000000000058913
41 -0.001024927119380
42 0.001024927109118
43 0.000000000010262
44 -0.000000231973777
45 -0.023326643402202
46 0.000004572237763
47 0.075502156203916
48 0.11139180935759
49 0.029576420627373
50 0.003409234046363
51 0.010334080325182
52 0.003376768780863
53 -0.15095306402714
54 -0.22270800961902
55 -0.059132764898821
56 -0.014485000672647
57 -0.000001837915809
58 -0.006751245413436
59 0.075450907944922
60 0.11131620043996
61 0.029556345173867
62 0.003413284542291
63 -0.010330740492035
64 0.003374476746739
 Sym=     10.1
 Ene=      -0.6243
 Spin= Alpha
 Occup=    2.000000
1 0.000000000000001
2 -0.000000000000004
3 0.000000000000071
4 -0.000000000000279
5 0.000036693781498
6 0.18720434084911
7 -0.000000000000003
8 0.000059371548721
9 0.30290177786794
10 -0.000000000000037
11 0.000038849531044
12 0.19820254481830
13 -0.000000000000010
14 -0.000004782319147
15 0.000004782319154
16 -0.000000000000007
17 0.028172888070289
18 -0.000001263119756
19 -0.006444184733286
20 0.000000000000000
21 0.000000000000000
22 0.000000000000001
23 -0.000000000000004
24 -0.000000000000022
25 0.000000000000086
26 -0.000019642228807
27 -0.10021072517726
28 -0.000000000000018
29 -0.000004703758495
30 -0.023997635619348
31 -0.000000000000009
32 0.000013602696544
33 0.069398238809628
34 0.000000000000022
35 0.000034087094722
36 0.17390554361036
37 -0.000000000000014
38 0.000011662583883
39 0.059500171130152
40 -0.000000000000017
41 -0.000000200895190
42 0.000000200895187
43 0.000000000000004
44 0.001183483856015
45 -0.000004572237772
46 -0.023326643389794
47 -0.13071439408378
48 -0.19284896790148
49 -0.051204680750677
50 0.010333079038045
51 -0.008517555399372
52 -0.005846088381599
53 -0.000029588196058
54 -0.000043652828882
55 -0.000011590568525
56 -0.000002839194081
57 0.009376679184704
58 -0.000001323306526
59 0.13074398227986
60 0.19289262073042
61 0.051216271319394
62 -0.010331741761338
63 -0.008521605895335
64 0.005847411688149
 Sym=     11.1
 Ene=      -0.5462
 Spin= Alpha
 Occup=    2.000000
1 0.000694991571779
2 0.001730817447360
3 -0.002482193344095
4 -0.083880426274427
5 -0.000000000009292
6 0.000000000000000
7 -0.13940356242328
8 -0.000000000298817
9 0.000000000000006
10 -0.27117769677536
11 -0.000000000281141
12 -0.000000000000003
13 -0.15595063552199
14 0.020300553347184
15 0.020300553170880
16 -0.040601106518064
17 0.000000000000001
18 0.000000000029813
19 -0.000000000000000
20 0.006482253073441
21 0.019150402814808
22 -0.041224181517162
23 -0.068521376171954
24 0.094012854994027
25 0.22157936008882
26 0.000000000001802
27 -0.000000000000002
28 -0.26896214208456
29 0.000000000001322
30 -0.000000000000001
31 -0.065550835662884
32 0.000000000019496
33 0.000000000000001
34 0.19013189128217
35 -0.000000000061995
36 0.000000000000003
37 0.45069758512866
38 0.000000000113924
39 0.000000000000001
40 0.16440993906881
41 0.026993468520446
42 0.026993468554018
43 -0.053986937074464
44 -0.000000000000000
45 -0.000000000002846