Title Card Required                                                     
Freq      RHF                                                         6-311G(d,p)         
Number of atoms                            I                5
Info1-9                                    I   N=           9
          18          18        1002           0           0         100
           6           1           2
Full Title                                 C   N=           2
Title Card Required     
Route                                      C   N=           4
# opt freq hf/6-311g(d,p) geom=connectivity     
Charge                                     I                0
Multiplicity                               I                1
Number of electrons                        I               10
Number of alpha electrons                  I                5
Number of beta electrons                   I                5
Number of basis functions                  I               42
Number of independent functions            I               42
Number of point charges in /Mol/           I                0
Number of translation vectors              I                0
Atomic numbers                             I   N=           5
           6           1           1           1           1
Nuclear charges                            R   N=           5
  6.00000000E+00  1.00000000E+00  1.00000000E+00  1.00000000E+00  1.00000000E+00
Current cartesian coordinates              R   N=          15
 -0.00000000E+00  0.00000000E+00  0.00000000E+00  1.18294842E+00  1.18294842E+00
  1.18294842E+00 -1.18294842E+00 -1.18294842E+00  1.18294842E+00 -1.18294842E+00
  1.18294842E+00 -1.18294842E+00  1.18294842E+00 -1.18294842E+00 -1.18294842E+00
Number of symbols in /Mol/                 I                0
Force Field                                I                0
Atom Types                                 C   N=           5
                                                            
Int Atom Types                             I   N=           5
           0           0           0           0           0
MM charges                                 R   N=           5
  0.00000000E+00  0.00000000E+00  0.00000000E+00  0.00000000E+00  0.00000000E+00
Integer atomic weights                     I   N=           5
          12           1           1           1           1
Real atomic weights                        R   N=           5
  1.20000000E+01  1.00782504E+00  1.00782504E+00  1.00782504E+00  1.00782504E+00
Atom fragment info                         I   N=           5
           0           0           0           0           0
Atom residue num                           I   N=           5
           0           0           0           0           0
Nuclear spins                              I   N=           5
           0           1           1           1           1
Nuclear ZEff                               R   N=           5
 -3.60000000E+00 -1.00000000E+00 -1.00000000E+00 -1.00000000E+00 -1.00000000E+00
Nuclear ZNuc                               R   N=           5
  6.00000000E+00  1.00000000E+00  1.00000000E+00  1.00000000E+00  1.00000000E+00
Nuclear QMom                               R   N=           5
  0.00000000E+00  0.00000000E+00  0.00000000E+00  0.00000000E+00  0.00000000E+00
Nuclear GFac                               R   N=           5
  0.00000000E+00  2.79284600E+00  2.79284600E+00  2.79284600E+00  2.79284600E+00
MicOpt                                     I   N=           5
          -1          -1          -1          -1          -1
Number of residues                         I                0
Number of secondary structures             I                0
Redundant internal dimensions              I   N=           4
          14           4           6           4
Redundant internal coordinate indices      I   N=          56
           1           2           0           0           1           3
           0           0           1           4           0           0
           1           5           0           0           2           1
           3           0           2           1           4           0
           2           1           5           0           3           1
           4           0           3           1           5           0
           4           1           5           0           2           1
           4           3           2           1           5           3
           2           1           5           4           3           1
           5           4
Redundant internal coordinates             R   N=          14
  2.04892676E+00  2.04892676E+00  2.04892676E+00  2.04892676E+00  1.91063324E+00
  1.91063324E+00  1.91063324E+00  1.91063324E+00  1.91063324E+00  1.91063324E+00
 -2.09439510E+00  2.09439510E+00 -2.09439510E+00  2.09439510E+00
ZRed-IntVec                                I   N=          14
           0           0           0           0           0           0
           0           0           0           0           0           0
           0           0
ZRed-FPVec                                 R   N=          14
  0.00000000E+00  0.00000000E+00  0.00000000E+00  0.00000000E+00  0.00000000E+00
  0.00000000E+00  0.00000000E+00  0.00000000E+00  0.00000000E+00  0.00000000E+00
  0.00000000E+00  0.00000000E+00  0.00000000E+00  0.00000000E+00
ZRed-Constraint1                           R   N=          14
  2.04892676E+00  2.04892676E+00  2.04892676E+00  2.04892676E+00  1.91063324E+00
  1.91063324E+00  1.91063324E+00  1.91063324E+00  1.91063324E+00  1.91063324E+00
 -2.09439510E+00  2.09439510E+00 -2.09439510E+00  2.09439510E+00
ZRed-Constraint2                           R   N=          14
  2.02200696E+00  2.02200695E+00  2.02200695E+00  2.02200695E+00  1.91063293E+00
  1.91063293E+00  1.91063341E+00  1.91063376E+00  1.91063320E+00  1.91063320E+00
 -2.09439485E+00  2.09439481E+00 -2.09439481E+00  2.09439570E+00
SymInf integers                            I   N=          26
           4           4           1           1           1           1
          -1          -1          -1           1          -1          -1
          -1           1           0           0           0           0
           0           0           0           0           0           0
           0           0
RotTr to input orientation                 R   N=          12
 -5.77360161E-01 -8.16489586E-01 -7.78087995E-16  5.77344726E-01 -4.08254863E-01
 -7.07107512E-01  5.77345920E-01 -4.08255707E-01  7.07106050E-01 -1.26799805E+00
  1.29526673E+00  2.45162463E-17
Number of contracted shells                I               21
Number of primitive shells                 I               36
Pure/Cartesian d shells                    I                0
Pure/Cartesian f shells                    I                0
Highest angular momentum                   I                2
Largest degree of contraction              I                6
Shell types                                I   N=          21
           0          -1          -1          -1          -2           0
           0           0           1           0           0           0
           1           0           0           0           1           0
           0           0           1
Number of primitives per shell             I   N=          21
           6           3           1           1           1           3
           1           1           1           3           1           1
           1           3           1           1           1           3
           1           1           1
Shell to atom map                          I   N=          21
           1           1           1           1           1           2
           2           2           2           3           3           3
           3           4           4           4           4           5
           5           5           5
Primitive exponents                        R   N=          36
  4.56324000E+03  6.82024000E+02  1.54973000E+02  4.44553000E+01  1.30290000E+01
  1.82773000E+00  2.09642000E+01  4.80331000E+00  1.45933000E+00  4.83456000E-01
  1.45585000E-01  6.26000000E-01  3.38650000E+01  5.09479000E+00  1.15879000E+00
  3.25840000E-01  1.02741000E-01  7.50000000E-01  3.38650000E+01  5.09479000E+00
  1.15879000E+00  3.25840000E-01  1.02741000E-01  7.50000000E-01  3.38650000E+01
  5.09479000E+00  1.15879000E+00  3.25840000E-01  1.02741000E-01  7.50000000E-01
  3.38650000E+01  5.09479000E+00  1.15879000E+00  3.25840000E-01  1.02741000E-01
  7.50000000E-01
Contraction coefficients                   R   N=          36
  1.96665025E-03  1.52306019E-02  7.61269097E-02  2.60801033E-01  6.16462078E-01
  2.21006028E-01  1.14660081E-01  9.19999648E-01 -3.03068213E-03  1.00000000E+00
  1.00000000E+00  1.00000000E+00  2.54938145E-02  1.90373109E-01  8.52161486E-01
  1.00000000E+00  1.00000000E+00  1.00000000E+00  2.54938145E-02  1.90373109E-01
  8.52161486E-01  1.00000000E+00  1.00000000E+00  1.00000000E+00  2.54938145E-02
  1.90373109E-01  8.52161486E-01  1.00000000E+00  1.00000000E+00  1.00000000E+00
  2.54938145E-02  1.90373109E-01  8.52161486E-01  1.00000000E+00  1.00000000E+00
  1.00000000E+00
P(S=P) Contraction coefficients            R   N=          36
  0.00000000E+00  0.00000000E+00  0.00000000E+00  0.00000000E+00  0.00000000E+00
  0.00000000E+00  4.02486927E-02  2.37593957E-01  8.15853851E-01  1.00000000E+00
  1.00000000E+00  0.00000000E+00  0.00000000E+00  0.00000000E+00  0.00000000E+00
  0.00000000E+00  0.00000000E+00  0.00000000E+00  0.00000000E+00  0.00000000E+00
  0.00000000E+00  0.00000000E+00  0.00000000E+00  0.00000000E+00  0.00000000E+00
  0.00000000E+00  0.00000000E+00  0.00000000E+00  0.00000000E+00  0.00000000E+00
  0.00000000E+00  0.00000000E+00  0.00000000E+00  0.00000000E+00  0.00000000E+00
  0.00000000E+00
Coordinates of each shell                  R   N=          63
  0.00000000E+00  0.00000000E+00  0.00000000E+00  0.00000000E+00  0.00000000E+00
  0.00000000E+00  0.00000000E+00  0.00000000E+00  0.00000000E+00  0.00000000E+00
  0.00000000E+00  0.00000000E+00  0.00000000E+00  0.00000000E+00  0.00000000E+00
  1.18294842E+00  1.18294842E+00  1.18294842E+00  1.18294842E+00  1.18294842E+00
  1.18294842E+00  1.18294842E+00  1.18294842E+00  1.18294842E+00  1.18294842E+00
  1.18294842E+00  1.18294842E+00 -1.18294842E+00 -1.18294842E+00  1.18294842E+00
 -1.18294842E+00 -1.18294842E+00  1.18294842E+00 -1.18294842E+00 -1.18294842E+00
  1.18294842E+00 -1.18294842E+00 -1.18294842E+00  1.18294842E+00 -1.18294842E+00
  1.18294842E+00 -1.18294842E+00 -1.18294842E+00  1.18294842E+00 -1.18294842E+00
 -1.18294842E+00  1.18294842E+00 -1.18294842E+00 -1.18294842E+00  1.18294842E+00
 -1.18294842E+00  1.18294842E+00 -1.18294842E+00 -1.18294842E+00  1.18294842E+00
 -1.18294842E+00 -1.18294842E+00  1.18294842E+00 -1.18294842E+00 -1.18294842E+00
  1.18294842E+00 -1.18294842E+00 -1.18294842E+00
Num ILSW                                   I              100
ILSW                                       I   N=         100
           0           0           0           0           2           0
           0           0           0           0           0          -1
           5           0           0           0           2           0
           0           0           1           0           1           0
           1           0           0           0           0           0
           0           0      100000           0          -1           0
           0           0           0           0           0           0
           0           0           0           1           0           0
           0 -2000000000           1           0           0           0
           0           0           4          52           0           0
           0           0           0           0           0           0
           0           0           0           0           0           1
           0           0           0           0           0           0
           0           0           0           0           0           0
           0           0           0           0           0           0
           0           0           0           0           0           0
           0           0           0           0
Num RLSW                                   I               52
RLSW                                       R   N=          52
  1.00000000E+00  1.00000000E+00  1.00000000E+00  1.00000000E+00  1.00000000E+00
  0.00000000E+00  0.00000000E+00  1.00000000E+00  0.00000000E+00  0.00000000E+00
  0.00000000E+00  0.00000000E+00  1.00000000E+00  0.00000000E+00  0.00000000E+00
  0.00000000E+00  0.00000000E+00  1.00000000E+00  0.00000000E+00  0.00000000E+00
  0.00000000E+00  0.00000000E+00  1.00000000E+00  0.00000000E+00  0.00000000E+00
  0.00000000E+00  0.00000000E+00  1.00000000E+00  0.00000000E+00  0.00000000E+00
  0.00000000E+00  0.00000000E+00  1.00000000E+00  0.00000000E+00  0.00000000E+00
  0.00000000E+00  0.00000000E+00  0.00000000E+00  1.00000000E+00  1.00000000E+00
  0.00000000E+00  1.00000000E+00  0.00000000E+00  0.00000000E+00  0.00000000E+00
  0.00000000E+00  0.00000000E+00  0.00000000E+00  0.00000000E+00  0.00000000E+00
  0.00000000E+00  0.00000000E+00
MxBond                                     I                4
NBond                                      I   N=           5
           4           1           1           1           1
IBond                                      I   N=          20
           2           3           4           5           1           0
           0           0           1           0           0           0
           1           0           0           0           1           0
           0           0
RBond                                      R   N=          20
  1.00000000E+00  1.00000000E+00  1.00000000E+00  1.00000000E+00  1.00000000E+00
  0.00000000E+00  0.00000000E+00  0.00000000E+00  1.00000000E+00  0.00000000E+00
  0.00000000E+00  0.00000000E+00  1.00000000E+00  0.00000000E+00  0.00000000E+00
  0.00000000E+00  1.00000000E+00  0.00000000E+00  0.00000000E+00  0.00000000E+00
Virial Ratio                               R      2.000539406600557E+00
SCF Energy                                 R     -4.020901170190775E+01
Total Energy                               R     -4.020901170190775E+01
RMS Force                                  R      5.112300609945131E-08
RMS Density                                R      3.059467809201787E-10
NImag                                      I                0
Job Status                                 I                1
Nuclear derivative order                   I                2
External E-field                           R   N=          35
  0.00000000E+00  0.00000000E+00  0.00000000E+00  0.00000000E+00  0.00000000E+00
  0.00000000E+00  0.00000000E+00  0.00000000E+00  0.00000000E+00  0.00000000E+00
  0.00000000E+00  0.00000000E+00  0.00000000E+00  0.00000000E+00  0.00000000E+00
  0.00000000E+00  0.00000000E+00  0.00000000E+00  0.00000000E+00  0.00000000E+00
  0.00000000E+00  0.00000000E+00  0.00000000E+00  0.00000000E+00  0.00000000E+00
  0.00000000E+00  0.00000000E+00  0.00000000E+00  0.00000000E+00  0.00000000E+00
  0.00000000E+00  0.00000000E+00  0.00000000E+00  0.00000000E+00  0.00000000E+00
IOpCl                                      I                0
IROHF                                      I                0
Alpha Orbital Energies                     R   N=          42
 -1.12050021E+01 -9.45020814E-01 -5.46086398E-01 -5.46086398E-01 -5.46086398E-01
  1.62256963E-01  2.37482802E-01  2.37482802E-01  2.37482802E-01  4.27683468E-01
  4.27683468E-01  4.27683468E-01  7.59058964E-01  8.14579122E-01  8.14579122E-01
  8.14579122E-01  9.35392829E-01  1.20255738E+00  1.20255738E+00  1.72131619E+00
  1.72131619E+00  1.72131619E+00  1.72814538E+00  1.72814538E+00  1.72814538E+00
  2.18451647E+00  2.18451647E+00  2.18451647E+00  2.53089082E+00  2.63048479E+00
  2.63048479E+00  2.70061710E+00  2.70061710E+00  2.70061710E+00  2.91274969E+00
  2.91274969E+00  2.91274969E+00  3.19063321E+00  4.20520740E+00  4.20520740E+00
  4.20520740E+00  2.51759874E+01
Alpha MO coefficients                      R   N=        1764
  5.63309922E-01  4.66534304E-01  0.00000000E+00  0.00000000E+00  0.00000000E+00
  4.52172942E-03  0.00000000E+00  0.00000000E+00  0.00000000E+00 -1.09088978E-03
  0.00000000E+00  0.00000000E+00  0.00000000E+00 -1.97180559E-16  0.00000000E+00
  0.00000000E+00  6.73457951E-17  0.00000000E+00  3.74100589E-04  6.14038076E-05
  2.17078329E-04  4.20257524E-06  4.20257524E-06  4.20257524E-06  3.74100589E-04
  6.14038076E-05  2.17078329E-04 -4.20257524E-06 -4.20257524E-06  4.20257524E-06
  3.74100589E-04  6.14038076E-05  2.17078329E-04 -4.20257524E-06  4.20257524E-06
 -4.20257524E-06  3.74100589E-04  6.14038076E-05  2.17078329E-04  4.20257524E-06
 -4.20257524E-06 -4.20257524E-06 -1.02992358E-01 -1.69620597E-01  0.00000000E+00
  0.00000000E+00  0.00000000E+00  4.23139057E-01  0.00000000E+00  0.00000000E+00
  0.00000000E+00  2.61199564E-01  0.00000000E+00  0.00000000E+00  0.00000000E+00
 -3.15708856E-16  0.00000000E+00  0.00000000E+00  8.76803791E-17  0.00000000E+00
  8.38884032E-02  1.13296334E-01  7.56379823E-03 -1.12543155E-02 -1.12543155E-02
 -1.12543155E-02  8.38884032E-02  1.13296334E-01  7.56379823E-03  1.12543155E-02
  1.12543155E-02 -1.12543155E-02  8.38884032E-02  1.13296334E-01  7.56379823E-03
  1.12543155E-02 -1.12543155E-02  1.12543155E-02  8.38884032E-02  1.13296334E-01
  7.56379823E-03 -1.12543155E-02  1.12543155E-02  1.12543155E-02  0.00000000E+00
  0.00000000E+00  1.89573235E-01  0.00000000E+00  0.00000000E+00  0.00000000E+00
  2.98131491E-01  0.00000000E+00  0.00000000E+00  0.00000000E+00  1.95240033E-01
  0.00000000E+00  0.00000000E+00  0.00000000E+00  0.00000000E+00  3.28758122E-02
  0.00000000E+00  0.00000000E+00  1.00085400E-01  1.57136413E-01  6.77912182E-02
  1.33328288E-03 -9.90798116E-03 -9.90798116E-03 -1.00085400E-01 -1.57136413E-01
 -6.77912182E-02  1.33328288E-03 -9.90798116E-03  9.90798116E-03 -1.00085400E-01
 -1.57136413E-01 -6.77912182E-02  1.33328288E-03  9.90798116E-03 -9.90798116E-03
  1.00085400E-01  1.57136413E-01  6.77912182E-02  1.33328288E-03  9.90798116E-03
  9.90798116E-03  0.00000000E+00  0.00000000E+00  0.00000000E+00  0.00000000E+00
  1.89573235E-01  0.00000000E+00  0.00000000E+00  0.00000000E+00  2.98131491E-01
  0.00000000E+00  0.00000000E+00  0.00000000E+00  1.95240033E-01  0.00000000E+00
  0.00000000E+00  0.00000000E+00  0.00000000E+00  3.28758122E-02  1.00085400E-01
  1.57136413E-01  6.77912182E-02 -9.90798116E-03 -9.90798116E-03  1.33328288E-03
  1.00085400E-01  1.57136413E-01  6.77912182E-02  9.90798116E-03  9.90798116E-03
  1.33328288E-03 -1.00085400E-01 -1.57136413E-01 -6.77912182E-02 -9.90798116E-03
  9.90798116E-03  1.33328288E-03 -1.00085400E-01 -1.57136413E-01 -6.77912182E-02
  9.90798116E-03 -9.90798116E-03  1.33328288E-03  0.00000000E+00  0.00000000E+00
  0.00000000E+00  1.89573235E-01  0.00000000E+00  0.00000000E+00  0.00000000E+00
  2.98131491E-01  0.00000000E+00  0.00000000E+00  0.00000000E+00  1.95240033E-01
  0.00000000E+00  0.00000000E+00  3.28758122E-02  0.00000000E+00  0.00000000E+00
  0.00000000E+00  1.00085400E-01  1.57136413E-01  6.77912182E-02 -9.90798116E-03
  1.33328288E-03 -9.90798116E-03 -1.00085400E-01 -1.57136413E-01 -6.77912182E-02
 -9.90798116E-03  1.33328288E-03  9.90798116E-03  1.00085400E-01  1.57136413E-01
  6.77912182E-02  9.90798116E-03  1.33328288E-03  9.90798116E-03 -1.00085400E-01
 -1.57136413E-01 -6.77912182E-02  9.90798116E-03  1.33328288E-03 -9.90798116E-03
 -4.85649986E-02 -7.78977501E-02  0.00000000E+00  0.00000000E+00  0.00000000E+00
  6.35102651E-02  0.00000000E+00  0.00000000E+00  0.00000000E+00  2.17082518E+00
  0.00000000E+00  0.00000000E+00  0.00000000E+00 -1.68560518E-15  0.00000000E+00
  0.00000000E+00 -6.60616702E-16  0.00000000E+00 -8.32661048E-03  6.16020688E-03
 -7.86177303E-01  1.27799800E-03  1.27799800E-03  1.27799800E-03 -8.32661048E-03
  6.16020688E-03 -7.86177303E-01 -1.27799800E-03 -1.27799800E-03  1.27799800E-03
 -8.32661048E-03  6.16020688E-03 -7.86177303E-01 -1.27799800E-03  1.27799800E-03
 -1.27799800E-03 -8.32661048E-03  6.16020688E-03 -7.86177303E-01  1.27799800E-03
 -1.27799800E-03 -1.27799800E-03  0.00000000E+00  0.00000000E+00 -1.37217022E-01
  0.00000000E+00  0.00000000E+00  0.00000000E+00 -6.02027205E-02  0.00000000E+00
  0.00000000E+00  0.00000000E+00 -1.13556855E+00  0.00000000E+00  0.00000000E+00
  0.00000000E+00  0.00000000E+00  3.36771400E-02  0.00000000E+00  0.00000000E+00
  1.05649264E-02 -1.23628826E-01  1.37015891E+00  1.11963074E-02  1.50188569E-02
  1.50188569E-02 -1.05649264E-02  1.23628826E-01 -1.37015891E+00  1.11963074E-02
  1.50188569E-02 -1.50188569E-02 -1.05649264E-02  1.23628826E-01 -1.37015891E+00
  1.11963074E-02 -1.50188569E-02  1.50188569E-02  1.05649264E-02 -1.23628826E-01
  1.37015891E+00  1.11963074E-02 -1.50188569E-02 -1.50188569E-02  0.00000000E+00
  0.00000000E+00  0.00000000E+00  0.00000000E+00 -1.37217022E-01  0.00000000E+00
  0.00000000E+00  0.00000000E+00 -6.02027205E-02  0.00000000E+00  0.00000000E+00
  0.00000000E+00 -1.13556855E+00  0.00000000E+00  0.00000000E+00  0.00000000E+00
  0.00000000E+00  3.36771400E-02  1.05649264E-02 -1.23628826E-01  1.37015891E+00
  1.50188569E-02  1.50188569E-02  1.11963074E-02  1.05649264E-02 -1.23628826E-01
  1.37015891E+00 -1.50188569E-02 -1.50188569E-02  1.11963074E-02 -1.05649264E-02
  1.23628826E-01 -1.37015891E+00  1.50188569E-02 -1.50188569E-02  1.11963074E-02
 -1.05649264E-02  1.23628826E-01 -1.37015891E+00 -1.50188569E-02  1.50188569E-02
  1.11963074E-02  0.00000000E+00  0.00000000E+00  0.00000000E+00 -1.37217022E-01
  0.00000000E+00  0.00000000E+00  0.00000000E+00 -6.02027205E-02  0.00000000E+00
  0.00000000E+00  0.00000000E+00 -1.13556855E+00  0.00000000E+00  0.00000000E+00
  3.36771400E-02  0.00000000E+00  0.00000000E+00  0.00000000E+00  1.05649264E-02
 -1.23628826E-01  1.37015891E+00  1.50188569E-02  1.11963074E-02  1.50188569E-02
 -1.05649264E-02  1.23628826E-01 -1.37015891E+00  1.50188569E-02  1.11963074E-02
 -1.50188569E-02  1.05649264E-02 -1.23628826E-01  1.37015891E+00 -1.50188569E-02
  1.11963074E-02 -1.50188569E-02 -1.05649264E-02  1.23628826E-01 -1.37015891E+00
 -1.50188569E-02  1.11963074E-02  1.50188569E-02  0.00000000E+00  0.00000000E+00
  0.00000000E+00  3.96653632E-03  0.00000000E+00  0.00000000E+00  0.00000000E+00
  5.22082848E-02  0.00000000E+00  0.00000000E+00  0.00000000E+00  1.58148293E+00
  0.00000000E+00  0.00000000E+00  4.25439227E-02  0.00000000E+00  0.00000000E+00
  0.00000000E+00 -3.79434921E-02 -8.06407118E-01  1.79217987E-02  2.41862970E-02
  2.91969670E-02  2.41862970E-02  3.79434921E-02  8.06407118E-01 -1.79217987E-02
  2.41862970E-02  2.91969670E-02 -2.41862970E-02 -3.79434921E-02 -8.06407118E-01
  1.79217987E-02 -2.41862970E-02  2.91969670E-02 -2.41862970E-02  3.79434921E-02
  8.06407118E-01 -1.79217987E-02 -2.41862970E-02  2.91969670E-02  2.41862970E-02
  0.00000000E+00  0.00000000E+00  3.96653632E-03  0.00000000E+00  0.00000000E+00
  0.00000000E+00  5.22082848E-02  0.00000000E+00  0.00000000E+00  0.00000000E+00
  1.58148293E+00  0.00000000E+00  0.00000000E+00  0.00000000E+00  0.00000000E+00
  4.25439227E-02  0.00000000E+00  0.00000000E+00 -3.79434921E-02 -8.06407118E-01
  1.79217987E-02  2.91969670E-02  2.41862970E-02  2.41862970E-02  3.79434921E-02
  8.06407118E-01 -1.79217987E-02  2.91969670E-02  2.41862970E-02 -2.41862970E-02
  3.79434921E-02  8.06407118E-01 -1.79217987E-02  2.91969670E-02 -2.41862970E-02
  2.41862970E-02 -3.79434921E-02 -8.06407118E-01  1.79217987E-02  2.91969670E-02
 -2.41862970E-02 -2.41862970E-02  0.00000000E+00  0.00000000E+00  0.00000000E+00
  0.00000000E+00  3.96653632E-03  0.00000000E+00  0.00000000E+00  0.00000000E+00
  5.22082848E-02  0.00000000E+00  0.00000000E+00  0.00000000E+00  1.58148293E+00
  0.00000000E+00  0.00000000E+00  0.00000000E+00  0.00000000E+00  4.25439227E-02
 -3.79434921E-02 -8.06407118E-01  1.79217987E-02  2.41862970E-02  2.41862970E-02
  2.91969670E-02 -3.79434921E-02 -8.06407118E-01  1.79217987E-02 -2.41862970E-02
 -2.41862970E-02  2.91969670E-02  3.79434921E-02  8.06407118E-01 -1.79217987E-02
  2.41862970E-02 -2.41862970E-02  2.91969670E-02  3.79434921E-02  8.06407118E-01
 -1.79217987E-02 -2.41862970E-02  2.41862970E-02  2.91969670E-02 -6.54380761E-02
 -1.26304012E-01  0.00000000E+00  0.00000000E+00  0.00000000E+00  3.76149342E-01
  0.00000000E+00  0.00000000E+00  0.00000000E+00  2.29461335E+00  0.00000000E+00
  0.00000000E+00  0.00000000E+00  3.17121470E-16  0.00000000E+00  0.00000000E+00
 -7.37096021E-15  0.00000000E+00 -4.73866504E-02 -1.22101996E+00  1.35258350E-01
 -1.11682470E-02 -1.11682470E-02 -1.11682470E-02 -4.73866504E-02 -1.22101996E+00
  1.35258350E-01  1.11682470E-02  1.11682470E-02 -1.11682470E-02 -4.73866504E-02
 -1.22101996E+00  1.35258350E-01  1.11682470E-02 -1.11682470E-02  1.11682470E-02
 -4.73866504E-02 -1.22101996E+00  1.35258350E-01 -1.11682470E-02  1.11682470E-02
  1.11682470E-02  0.00000000E+00  0.00000000E+00 -2.54085637E-01  0.00000000E+00
  0.00000000E+00  0.00000000E+00 -1.04267726E+00  0.00000000E+00  0.00000000E+00
  0.00000000E+00  1.68235497E+00  0.00000000E+00  0.00000000E+00  0.00000000E+00
  0.00000000E+00  6.61190732E-02  0.00000000E+00  0.00000000E+00  3.54941585E-02
  3.45196064E-01 -1.03139304E+00 -1.41364701E-02  3.83669680E-02  3.83669680E-02
 -3.54941585E-02 -3.45196064E-01  1.03139304E+00 -1.41364701E-02  3.83669680E-02
 -3.83669680E-02 -3.54941585E-02 -3.45196064E-01  1.03139304E+00 -1.41364701E-02
 -3.83669680E-02  3.83669680E-02  3.54941585E-02  3.45196064E-01 -1.03139304E+00
 -1.41364701E-02 -3.83669680E-02 -3.83669680E-02  0.00000000E+00  0.00000000E+00
  0.00000000E+00  0.00000000E+00 -2.54085637E-01  0.00000000E+00  0.00000000E+00
  0.00000000E+00 -1.04267726E+00  0.00000000E+00  0.00000000E+00  0.00000000E+00
  1.68235497E+00  0.00000000E+00  0.00000000E+00  0.00000000E+00  0.00000000E+00
  6.61190732E-02  3.54941585E-02  3.45196064E-01 -1.03139304E+00  3.83669680E-02
  3.83669680E-02 -1.41364701E-02  3.54941585E-02  3.45196064E-01 -1.03139304E+00
 -3.83669680E-02 -3.83669680E-02 -1.41364701E-02 -3.54941585E-02 -3.45196064E-01
  1.03139304E+00  3.83669680E-02 -3.83669680E-02 -1.41364701E-02 -3.54941585E-02
 -3.45196064E-01  1.03139304E+00 -3.83669680E-02  3.83669680E-02 -1.41364701E-02
  0.00000000E+00  0.00000000E+00  0.00000000E+00 -2.54085637E-01  0.00000000E+00
  0.00000000E+00  0.00000000E+00 -1.04267726E+00  0.00000000E+00  0.00000000E+00
  0.00000000E+00  1.68235497E+00  0.00000000E+00  0.00000000E+00  6.61190732E-02
  0.00000000E+00  0.00000000E+00  0.00000000E+00  3.54941585E-02  3.45196064E-01
 -1.03139304E+00  3.83669680E-02 -1.41364701E-02  3.83669680E-02 -3.54941585E-02
 -3.45196064E-01  1.03139304E+00  3.83669680E-02 -1.41364701E-02 -3.83669680E-02
  3.54941585E-02  3.45196064E-01 -1.03139304E+00 -3.83669680E-02 -1.41364701E-02
 -3.83669680E-02 -3.54941585E-02 -3.45196064E-01  1.03139304E+00 -3.83669680E-02
 -1.41364701E-02  3.83669680E-02  1.03766333E-01  2.18950912E-01  0.00000000E+00
  0.00000000E+00  0.00000000E+00 -1.91791720E+00  0.00000000E+00  0.00000000E+00
  0.00000000E+00  5.71273905E+00  0.00000000E+00  0.00000000E+00  0.00000000E+00
 -2.96095420E-15  0.00000000E+00  0.00000000E+00 -1.64380829E-14  0.00000000E+00
  1.46790106E-02 -7.25503022E-01 -7.47236323E-01  8.91161258E-02  8.91161258E-02
  8.91161258E-02  1.46790106E-02 -7.25503022E-01 -7.47236323E-01 -8.91161258E-02
 -8.91161258E-02  8.91161258E-02  1.46790106E-02 -7.25503022E-01 -7.47236323E-01
 -8.91161258E-02  8.91161258E-02 -8.91161258E-02  1.46790106E-02 -7.25503022E-01
 -7.47236323E-01  8.91161258E-02 -8.91161258E-02 -8.91161258E-02  1.91946569E-15
  5.53111726E-15  0.00000000E+00  0.00000000E+00  0.00000000E+00 -5.53279149E-14
  0.00000000E+00  0.00000000E+00  0.00000000E+00  1.46717604E-13  0.00000000E+00
  0.00000000E+00  0.00000000E+00 -6.52082964E-02  0.00000000E+00  0.00000000E+00
  4.56170461E-01  0.00000000E+00 -3.63686356E-15 -1.98162098E-14 -1.69830148E-14
  2.33945767E-01 -1.98274374E-01 -3.56713929E-02 -3.63686356E-15 -1.98162098E-14
 -1.69830148E-14 -2.33945767E-01  1.98274374E-01 -3.56713929E-02 -3.63686356E-15
 -1.98162098E-14 -1.69830148E-14 -2.33945767E-01 -1.98274374E-01  3.56713929E-02
 -3.63686356E-15 -1.98162098E-14 -1.69830148E-14  2.33945767E-01  1.98274374E-01
  3.56713929E-02  7.60054574E-17  2.52916202E-16  0.00000000E+00  0.00000000E+00
  0.00000000E+00 -1.17557711E-15  0.00000000E+00  0.00000000E+00  0.00000000E+00
  2.07135576E-15  0.00000000E+00  0.00000000E+00  0.00000000E+00  4.56170461E-01
  0.00000000E+00  0.00000000E+00  6.52082964E-02  0.00000000E+00  7.24448431E-16
 -9.27098033E-16  1.50411049E-16 -9.38788748E-02 -1.55663540E-01  2.49542414E-01
  7.24448431E-16 -9.27098033E-16  1.50411049E-16  9.38788748E-02  1.55663540E-01
  2.49542414E-01  7.24448431E-16 -9.27098033E-16  1.50411049E-16  9.38788748E-02
 -1.55663540E-01 -2.49542414E-01  7.24448431E-16 -9.27098033E-16  1.50411049E-16
 -9.38788748E-02  1.55663540E-01 -2.49542414E-01  0.00000000E+00  0.00000000E+00
  5.82180338E-02  0.00000000E+00  0.00000000E+00  0.00000000E+00  2.06616115E-01
  0.00000000E+00  0.00000000E+00  0.00000000E+00  9.98879860E-01  0.00000000E+00
  0.00000000E+00  0.00000000E+00  0.00000000E+00  8.56782639E-01  0.00000000E+00
  0.00000000E+00  1.98398747E-01 -9.01781278E-01  1.07493290E-01 -2.07198455E-01
  7.31848282E-02  7.31848282E-02 -1.98398747E-01  9.01781278E-01 -1.07493290E-01
 -2.07198455E-01  7.31848282E-02 -7.31848282E-02 -1.98398747E-01  9.01781278E-01
 -1.07493290E-01 -2.07198455E-01 -7.31848282E-02  7.31848282E-02  1.98398747E-01
 -9.01781278E-01  1.07493290E-01 -2.07198455E-01 -7.31848282E-02 -7.31848282E-02
  0.00000000E+00  0.00000000E+00  0.00000000E+00  5.82180338E-02  0.00000000E+00
  0.00000000E+00  0.00000000E+00  2.06616115E-01  0.00000000E+00  0.00000000E+00