 Entering Gaussian System, Link 0=g16
 Input=methan.gjf
 Output=methan.log
 Initial command:
 /usr/local/g16/l1.exe "/scratch/lme/Gau-940701.inp" -scrdir="/scratch/lme/"
 Entering Link 1 = /usr/local/g16/l1.exe PID=    940703.
  
 Copyright (c) 1988,1990,1992,1993,1995,1998,2003,2009,2016,
            Gaussian, Inc.  All Rights Reserved.
  
 This is part of the Gaussian(R) 16 program.  It is based on
 the Gaussian(R) 09 system (copyright 2009, Gaussian, Inc.),
 the Gaussian(R) 03 system (copyright 2003, Gaussian, Inc.),
 the Gaussian(R) 98 system (copyright 1998, Gaussian, Inc.),
 the Gaussian(R) 94 system (copyright 1995, Gaussian, Inc.),
 the Gaussian 92(TM) system (copyright 1992, Gaussian, Inc.),
 the Gaussian 90(TM) system (copyright 1990, Gaussian, Inc.),
 the Gaussian 88(TM) system (copyright 1988, Gaussian, Inc.),
 the Gaussian 86(TM) system (copyright 1986, Carnegie Mellon
 University), and the Gaussian 82(TM) system (copyright 1983,
 Carnegie Mellon University). Gaussian is a federally registered
 trademark of Gaussian, Inc.
  
 This software contains proprietary and confidential information,
 including trade secrets, belonging to Gaussian, Inc.
  
 This software is provided under written license and may be
 used, copied, transmitted, or stored only in accord with that
 written license.
  
 The following legend is applicable only to US Government
 contracts under FAR:
  
                    RESTRICTED RIGHTS LEGEND
  
 Use, reproduction and disclosure by the US Government is
 subject to restrictions as set forth in subparagraphs (a)
 and (c) of the Commercial Computer Software - Restricted
 Rights clause in FAR 52.227-19.
  
 Gaussian, Inc.
 340 Quinnipiac St., Bldg. 40, Wallingford CT 06492
  
  
 ---------------------------------------------------------------
 Warning -- This program may not be used in any manner that
 competes with the business of Gaussian, Inc. or will provide
 assistance to any competitor of Gaussian, Inc.  The licensee
 of this program is prohibited from giving any competitor of
 Gaussian, Inc. access to this program.  By using this program,
 the user acknowledges that Gaussian, Inc. is engaged in the
 business of creating and licensing software in the field of
 computational chemistry and represents and warrants to the
 licensee that it is not a competitor of Gaussian, Inc. and that
 it will not use this program in any manner prohibited above.
 ---------------------------------------------------------------
  

 Cite this work as:
 Gaussian 16, Revision A.03,
 M. J. Frisch, G. W. Trucks, H. B. Schlegel, G. E. Scuseria, 
 M. A. Robb, J. R. Cheeseman, G. Scalmani, V. Barone, 
 G. A. Petersson, H. Nakatsuji, X. Li, M. Caricato, A. V. Marenich, 
 J. Bloino, B. G. Janesko, R. Gomperts, B. Mennucci, H. P. Hratchian, 
 J. V. Ortiz, A. F. Izmaylov, J. L. Sonnenberg, D. Williams-Young, 
 F. Ding, F. Lipparini, F. Egidi, J. Goings, B. Peng, A. Petrone, 
 T. Henderson, D. Ranasinghe, V. G. Zakrzewski, J. Gao, N. Rega, 
 G. Zheng, W. Liang, M. Hada, M. Ehara, K. Toyota, R. Fukuda, 
 J. Hasegawa, M. Ishida, T. Nakajima, Y. Honda, O. Kitao, H. Nakai, 
 T. Vreven, K. Throssell, J. A. Montgomery, Jr., J. E. Peralta, 
 F. Ogliaro, M. J. Bearpark, J. J. Heyd, E. N. Brothers, K. N. Kudin, 
 V. N. Staroverov, T. A. Keith, R. Kobayashi, J. Normand, 
 K. Raghavachari, A. P. Rendell, J. C. Burant, S. S. Iyengar, 
 J. Tomasi, M. Cossi, J. M. Millam, M. Klene, C. Adamo, R. Cammi, 
 J. W. Ochterski, R. L. Martin, K. Morokuma, O. Farkas, 
 J. B. Foresman, and D. J. Fox, Gaussian, Inc., Wallingford CT, 2016.
 
 ******************************************
 Gaussian 16:  ES64L-G16RevA.03 25-Dec-2016
                10-Sep-2024 
 ******************************************
 %chk=methan.chk
 --------------------------------------------
 #p opt freq hf/6-311g(d,p) geom=connectivity
 --------------------------------------------
 1/18=20,19=15,38=1,57=2/1,3;
 2/9=110,12=2,17=6,18=5,40=1/2;
 3/5=4,6=6,7=101,11=9,25=1,30=1,71=1/1,2,3;
 4//1;
 5/5=2,38=5/2;
 6/7=2,8=2,9=2,10=2,28=1/1;
 7//1,2,3,16;
 1/18=20,19=15/3(2);
 2/9=110/2;
 99//99;
 2/9=110/2;
 3/5=4,6=6,7=101,11=9,25=1,30=1,71=1/1,2,3;
 4/5=5,16=3,69=1/1;
 5/5=2,38=5/2;
 7//1,2,3,16;
 1/18=20,19=15/3(-5);
 2/9=110/2;
 6/7=2,8=2,9=2,10=2,19=2,28=1/1;
 99/9=1/99;
 Leave Link    1 at Tue Sep 10 12:45:27 2024, MaxMem=           0 cpu:               0.0 elap:               0.0
 (Enter /usr/local/g16/l101.exe)
 -------------------
 Title Card Required
 -------------------
 Symbolic Z-matrix:
 Charge =  0 Multiplicity = 1
 C                    -0.671     0.68543   0. 
 H                    -0.31434  -0.32338   0. 
 H                    -0.31432   1.18982   0.87365 
 H                    -0.31432   1.18982  -0.87365 
 H                    -1.741     0.68544   0. 
 
 ITRead=  0  0  0  0  0
 MicOpt= -1 -1 -1 -1 -1
 NAtoms=      5 NQM=        5 NQMF=       0 NMMI=      0 NMMIF=      0
                NMic=       0 NMicF=      0.
                    Isotopes and Nuclear Properties:
 (Nuclear quadrupole moments (NQMom) in fm**2, nuclear magnetic moments (NMagM)
  in nuclear magnetons)

  Atom         1           2           3           4           5
 IAtWgt=          12           1           1           1           1
 AtmWgt=  12.0000000   1.0078250   1.0078250   1.0078250   1.0078250
 NucSpn=           0           1           1           1           1
 AtZEff=  -0.0000000  -0.0000000  -0.0000000  -0.0000000  -0.0000000
 NQMom=    0.0000000   0.0000000   0.0000000   0.0000000   0.0000000
 NMagM=    0.0000000   2.7928460   2.7928460   2.7928460   2.7928460
 AtZNuc=   6.0000000   1.0000000   1.0000000   1.0000000   1.0000000
 Leave Link  101 at Tue Sep 10 12:45:27 2024, MaxMem=   104857600 cpu:               0.1 elap:               0.1
 (Enter /usr/local/g16/l103.exe)

 GradGradGradGradGradGradGradGradGradGradGradGradGradGradGradGradGradGrad
 Berny optimization.
 Initialization pass.
                           ----------------------------
                           !    Initial Parameters    !
                           ! (Angstroms and Degrees)  !
 --------------------------                            --------------------------
 ! Name  Definition              Value          Derivative Info.                !
 --------------------------------------------------------------------------------
 ! R1    R(1,2)                  1.07           estimate D2E/DX2                !
 ! R2    R(1,3)                  1.07           estimate D2E/DX2                !
 ! R3    R(1,4)                  1.07           estimate D2E/DX2                !
 ! R4    R(1,5)                  1.07           estimate D2E/DX2                !
 ! A1    A(2,1,3)              109.4712         estimate D2E/DX2                !
 ! A2    A(2,1,4)              109.4712         estimate D2E/DX2                !
 ! A3    A(2,1,5)              109.4712         estimate D2E/DX2                !
 ! A4    A(3,1,4)              109.4713         estimate D2E/DX2                !
 ! A5    A(3,1,5)              109.4712         estimate D2E/DX2                !
 ! A6    A(4,1,5)              109.4712         estimate D2E/DX2                !
 ! D1    D(2,1,4,3)           -120.0            estimate D2E/DX2                !
 ! D2    D(2,1,5,3)            120.0            estimate D2E/DX2                !
 ! D3    D(2,1,5,4)           -120.0            estimate D2E/DX2                !
 ! D4    D(3,1,5,4)            120.0            estimate D2E/DX2                !
 --------------------------------------------------------------------------------
 Trust Radius=3.00D-01 FncErr=1.00D-07 GrdErr=1.00D-07 EigMax=2.50D+02 EigMin=1.00D-04
 Number of steps in this run=     24 maximum allowed number of steps=    100.
 GradGradGradGradGradGradGradGradGradGradGradGradGradGradGradGradGradGrad

 Leave Link  103 at Tue Sep 10 12:45:27 2024, MaxMem=   104857600 cpu:               0.0 elap:               0.0
 (Enter /usr/local/g16/l202.exe)
                          Input orientation:                          
 ---------------------------------------------------------------------
 Center     Atomic      Atomic             Coordinates (Angstroms)
 Number     Number       Type             X           Y           Z
 ---------------------------------------------------------------------
      1          6           0       -0.670996    0.685426    0.000000
      2          1           0       -0.314341   -0.323384    0.000000
      3          1           0       -0.314323    1.189824    0.873652
      4          1           0       -0.314323    1.189824   -0.873652
      5          1           0       -1.740996    0.685439    0.000000
 ---------------------------------------------------------------------
                    Distance matrix (angstroms):
                    1          2          3          4          5
     1  C    0.000000
     2  H    1.070000   0.000000
     3  H    1.070000   1.747302   0.000000
     4  H    1.070000   1.747302   1.747303   0.000000
     5  H    1.070000   1.747303   1.747303   1.747303   0.000000
 Stoichiometry    CH4
 Framework group  T[O(C),4C3(H)]
 Deg. of freedom     1
 Full point group                 T       NOp  12
 Largest Abelian subgroup         D2      NOp   4
 Largest concise Abelian subgroup D2      NOp   4
                         Standard orientation:                         
 ---------------------------------------------------------------------
 Center     Atomic      Atomic             Coordinates (Angstroms)
 Number     Number       Type             X           Y           Z
 ---------------------------------------------------------------------
      1          6           0        0.000000   -0.000000    0.000000
      2          1           0        0.617765    0.617765    0.617765
      3          1           0       -0.617765   -0.617765    0.617765
      4          1           0       -0.617765    0.617765   -0.617765
      5          1           0        0.617765   -0.617765   -0.617765
 ---------------------------------------------------------------------
 Rotational constants (GHZ):         164.2463782         164.2463782         164.2463782
 Leave Link  202 at Tue Sep 10 12:45:27 2024, MaxMem=   104857600 cpu:               0.0 elap:               0.0
 (Enter /usr/local/g16/l301.exe)
 Standard basis: 6-311G(d,p) (5D, 7F)
 Ernie: Thresh=  0.10000D-02 Tol=  0.10000D-05 Strict=F.
 There are    13 symmetry adapted cartesian basis functions of A   symmetry.
 There are    10 symmetry adapted cartesian basis functions of B1  symmetry.
 There are    10 symmetry adapted cartesian basis functions of B2  symmetry.
 There are    10 symmetry adapted cartesian basis functions of B3  symmetry.
 There are    12 symmetry adapted basis functions of A   symmetry.
 There are    10 symmetry adapted basis functions of B1  symmetry.
 There are    10 symmetry adapted basis functions of B2  symmetry.
 There are    10 symmetry adapted basis functions of B3  symmetry.
    42 basis functions,    64 primitive gaussians,    43 cartesian basis functions
     5 alpha electrons        5 beta electrons
       nuclear repulsion energy        13.6865185418 Hartrees.
 IExCor=    0 DFT=F Ex=HF Corr=None ExCW=0 ScaHFX=  1.000000
 ScaDFX=  1.000000  1.000000  1.000000  1.000000 ScalE2=  1.000000  1.000000
 IRadAn=      5 IRanWt=     -1 IRanGd=            0 ICorTp=0 IEmpDi=  4
 NAtoms=    5 NActive=    5 NUniq=    2 SFac= 4.00D+00 NAtFMM=   60 NAOKFM=F Big=F
 Integral buffers will be    131072 words long.
 Raffenetti 1 integral format.
 Two-electron integral symmetry is turned on.
 Leave Link  301 at Tue Sep 10 12:45:27 2024, MaxMem=   104857600 cpu:               0.0 elap:               0.0
 (Enter /usr/local/g16/l302.exe)
 NPDir=0 NMtPBC=     1 NCelOv=     1 NCel=       1 NClECP=     1 NCelD=      1
         NCelK=      1 NCelE2=     1 NClLst=     1 CellRange=     0.0.
 One-electron integrals computed using PRISM.
 One-electron integral symmetry used in STVInt
 NBasis=    42 RedAO= T EigKep=  1.17D-02  NBF=    12    10    10    10
 NBsUse=    42 1.00D-06 EigRej= -1.00D+00 NBFU=    12    10    10    10
 Leave Link  302 at Tue Sep 10 12:45:27 2024, MaxMem=   104857600 cpu:               0.1 elap:               0.1
 (Enter /usr/local/g16/l303.exe)
 DipDrv:  MaxL=1.
 Leave Link  303 at Tue Sep 10 12:45:27 2024, MaxMem=   104857600 cpu:               0.0 elap:               0.0
 (Enter /usr/local/g16/l401.exe)
 ExpMin= 1.03D-01 ExpMax= 4.56D+03 ExpMxC= 6.82D+02 IAcc=3 IRadAn=         5 AccDes= 0.00D+00
 Harris functional with IExCor=  205 and IRadAn=       5 diagonalized for initial guess.
 HarFok:  IExCor=  205 AccDes= 0.00D+00 IRadAn=         5 IDoV= 1 UseB2=F ITyADJ=14
 ICtDFT=  3500011 ScaDFX=  1.000000  1.000000  1.000000  1.000000
 FoFCou: FMM=F IPFlag=           0 FMFlag=      100000 FMFlg1=           0
         NFxFlg=           0 DoJE=T BraDBF=F KetDBF=T FulRan=T
         wScrn=  0.000000 ICntrl=       500 IOpCl=  0 I1Cent=   200000004 NGrid=           0
         NMat0=    1 NMatS0=      1 NMatT0=    0 NMatD0=    1 NMtDS0=    0 NMtDT0=    0
 Petite list used in FoFCou.
 Harris En= -40.3970940903947    
 JPrj=0 DoOrth=F DoCkMO=F.
 Initial guess orbital symmetries:
       Occupied  (A) (A) (T) (T) (T)
       Virtual   (A) (T) (T) (T) (T) (T) (T) (A) (T) (T) (T) (A)
                 (E) (E) (T) (T) (T) (T) (T) (T) (T) (T) (T) (A)
                 (E) (E) (T) (T) (T) (T) (T) (T) (A) (T) (T) (T)
                 (A)
 The electronic state of the initial guess is 1-A.
 Leave Link  401 at Tue Sep 10 12:45:27 2024, MaxMem=   104857600 cpu:               0.1 elap:               0.1
 (Enter /usr/local/g16/l502.exe)
 Keep R1 ints in memory in symmetry-blocked form, NReq=1248840.
 FoFCou: FMM=F IPFlag=           0 FMFlag=           0 FMFlg1=           0
         NFxFlg=           0 DoJE=F BraDBF=F KetDBF=F FulRan=T
         wScrn=  0.000000 ICntrl=       600 IOpCl=  0 I1Cent=           0 NGrid=           0
         NMat0=    1 NMatS0=    903 NMatT0=    0 NMatD0=    1 NMtDS0=    0 NMtDT0=    0
 Petite list used in FoFCou.
 Closed shell SCF:
 Using DIIS extrapolation, IDIIS=  1040.
 NGot=   104857600 LenX=   104747222 LenY=   104744932
 Requested convergence on RMS density matrix=1.00D-08 within 128 cycles.
 Requested convergence on MAX density matrix=1.00D-06.
 Requested convergence on             energy=1.00D-06.
 No special actions if energy rises.

 Cycle   1  Pass 1  IDiag  1:
 E= -40.0655326815511    
 DIIS: error= 7.00D-02 at cycle   1 NSaved=   1.
 NSaved= 1 IEnMin= 1 EnMin= -40.0655326815511     IErMin= 1 ErrMin= 7.00D-02
 ErrMax= 7.00D-02  0.00D+00 EMaxC= 1.00D-01 BMatC= 1.83D-01 BMatP= 1.83D-01
 IDIUse=3 WtCom= 3.00D-01 WtEn= 7.00D-01
 Coeff-Com:  0.100D+01
 Coeff-En:   0.100D+01
 Coeff:      0.100D+01
 Gap=     0.621 Goal=   None    Shift=    0.000
 GapD=    0.621 DampG=2.000 DampE=0.500 DampFc=1.0000 IDamp=-1.
 RMSDP=6.47D-03 MaxDP=1.27D-01              OVMax= 1.51D-01

 Cycle   2  Pass 1  IDiag  1:
 E= -40.1861105575756     Delta-E=       -0.120577876025 Rises=F Damp=F
 DIIS: error= 3.26D-02 at cycle   2 NSaved=   2.
 NSaved= 2 IEnMin= 2 EnMin= -40.1861105575756     IErMin= 2 ErrMin= 3.26D-02
 ErrMax= 3.26D-02  0.00D+00 EMaxC= 1.00D-01 BMatC= 2.45D-02 BMatP= 1.83D-01
 IDIUse=3 WtCom= 6.74D-01 WtEn= 3.26D-01
 Coeff-Com:  0.237D+00 0.763D+00
 Coeff-En:   0.000D+00 0.100D+01
 Coeff:      0.160D+00 0.840D+00
 Gap=     0.730 Goal=   None    Shift=    0.000
 RMSDP=2.35D-03 MaxDP=4.90D-02 DE=-1.21D-01 OVMax= 4.95D-02

 Cycle   3  Pass 1  IDiag  1:
 E= -40.2076515076176     Delta-E=       -0.021540950042 Rises=F Damp=F
 DIIS: error= 4.93D-03 at cycle   3 NSaved=   3.
 NSaved= 3 IEnMin= 3 EnMin= -40.2076515076176     IErMin= 3 ErrMin= 4.93D-03
 ErrMax= 4.93D-03  0.00D+00 EMaxC= 1.00D-01 BMatC= 7.73D-04 BMatP= 2.45D-02
 IDIUse=3 WtCom= 9.51D-01 WtEn= 4.93D-02
 Coeff-Com: -0.253D-01 0.102D+00 0.924D+00
 Coeff-En:   0.000D+00 0.000D+00 0.100D+01
 Coeff:     -0.240D-01 0.967D-01 0.927D+00
 Gap=     0.713 Goal=   None    Shift=    0.000
 RMSDP=3.87D-04 MaxDP=5.57D-03 DE=-2.15D-02 OVMax= 8.74D-03

 Cycle   4  Pass 1  IDiag  1:
 E= -40.2084358385480     Delta-E=       -0.000784330930 Rises=F Damp=F
 DIIS: error= 4.97D-04 at cycle   4 NSaved=   4.
 NSaved= 4 IEnMin= 4 EnMin= -40.2084358385480     IErMin= 4 ErrMin= 4.97D-04
 ErrMax= 4.97D-04  0.00D+00 EMaxC= 1.00D-01 BMatC= 5.58D-06 BMatP= 7.73D-04
 IDIUse=3 WtCom= 9.95D-01 WtEn= 4.97D-03
 Coeff-Com:  0.585D-02-0.430D-01-0.283D+00 0.132D+01
 Coeff-En:   0.000D+00 0.000D+00 0.000D+00 0.100D+01
 Coeff:      0.582D-02-0.428D-01-0.282D+00 0.132D+01
 Gap=     0.713 Goal=   None    Shift=    0.000
 RMSDP=1.06D-04 MaxDP=9.48D-04 DE=-7.84D-04 OVMax= 1.47D-03

 Cycle   5  Pass 1  IDiag  1:
 E= -40.2084486809293     Delta-E=       -0.000012842381 Rises=F Damp=F
 DIIS: error= 5.14D-05 at cycle   5 NSaved=   5.
 NSaved= 5 IEnMin= 5 EnMin= -40.2084486809293     IErMin= 5 ErrMin= 5.14D-05
 ErrMax= 5.14D-05  0.00D+00 EMaxC= 1.00D-01 BMatC= 1.04D-07 BMatP= 5.58D-06
 IDIUse=1 WtCom= 1.00D+00 WtEn= 0.00D+00
 Coeff-Com: -0.397D-03 0.471D-02 0.319D-01-0.261D+00 0.123D+01
 Coeff:     -0.397D-03 0.471D-02 0.319D-01-0.261D+00 0.123D+01
 Gap=     0.713 Goal=   None    Shift=    0.000
 RMSDP=1.84D-05 MaxDP=1.48D-04 DE=-1.28D-05 OVMax= 2.21D-04

 Cycle   6  Pass 1  IDiag  1:
 E= -40.2084489174300     Delta-E=       -0.000000236501 Rises=F Damp=F
 DIIS: error= 3.17D-06 at cycle   6 NSaved=   6.
 NSaved= 6 IEnMin= 6 EnMin= -40.2084489174300     IErMin= 6 ErrMin= 3.17D-06
 ErrMax= 3.17D-06  0.00D+00 EMaxC= 1.00D-01 BMatC= 2.39D-10 BMatP= 1.04D-07
 IDIUse=1 WtCom= 1.00D+00 WtEn= 0.00D+00
 Coeff-Com:  0.497D-04-0.662D-03-0.461D-02 0.423D-01-0.233D+00 0.120D+01
 Coeff:      0.497D-04-0.662D-03-0.461D-02 0.423D-01-0.233D+00 0.120D+01
 Gap=     0.713 Goal=   None    Shift=    0.000
 RMSDP=1.35D-06 MaxDP=9.58D-06 DE=-2.37D-07 OVMax= 1.06D-05

 Cycle   7  Pass 1  IDiag  1:
 E= -40.2084489179831     Delta-E=       -0.000000000553 Rises=F Damp=F
 DIIS: error= 2.34D-07 at cycle   7 NSaved=   7.
 NSaved= 7 IEnMin= 7 EnMin= -40.2084489179831     IErMin= 7 ErrMin= 2.34D-07
 ErrMax= 2.34D-07  0.00D+00 EMaxC= 1.00D-01 BMatC= 1.34D-12 BMatP= 2.39D-10
 IDIUse=1 WtCom= 1.00D+00 WtEn= 0.00D+00
 Coeff-Com: -0.362D-05 0.534D-04 0.403D-03-0.404D-02 0.235D-01-0.155D+00
 Coeff-Com:  0.114D+01
 Coeff:     -0.362D-05 0.534D-04 0.403D-03-0.404D-02 0.235D-01-0.155D+00
 Coeff:      0.114D+01
 Gap=     0.713 Goal=   None    Shift=    0.000
 RMSDP=9.55D-08 MaxDP=1.23D-06 DE=-5.53D-10 OVMax= 5.69D-07

 Cycle   8  Pass 1  IDiag  1:
 E= -40.2084489179854     Delta-E=       -0.000000000002 Rises=F Damp=F
 DIIS: error= 1.11D-08 at cycle   8 NSaved=   8.
 NSaved= 8 IEnMin= 8 EnMin= -40.2084489179854     IErMin= 8 ErrMin= 1.11D-08
 ErrMax= 1.11D-08  0.00D+00 EMaxC= 1.00D-01 BMatC= 5.45D-15 BMatP= 1.34D-12
 IDIUse=1 WtCom= 1.00D+00 WtEn= 0.00D+00
 Coeff-Com:  0.677D-07-0.143D-05-0.138D-04 0.173D-03-0.110D-02 0.971D-02
 Coeff-Com: -0.129D+00 0.112D+01
 Coeff:      0.677D-07-0.143D-05-0.138D-04 0.173D-03-0.110D-02 0.971D-02
 Coeff:     -0.129D+00 0.112D+01
 Gap=     0.713 Goal=   None    Shift=    0.000
 RMSDP=6.06D-09 MaxDP=7.65D-08 DE=-2.25D-12 OVMax= 4.45D-08

 SCF Done:  E(RHF) =  -40.2084489180     A.U. after    8 cycles
            NFock=  8  Conv=0.61D-08     -V/T= 1.9985
 KE= 4.027059476694D+01 PE=-1.204640986099D+02 EE= 2.629853638323D+01
 Leave Link  502 at Tue Sep 10 12:45:27 2024, MaxMem=   104857600 cpu:               0.1 elap:               0.1
 (Enter /usr/local/g16/l601.exe)
 Copying SCF densities to generalized density rwf, IOpCl= 0 IROHF=0.

 **********************************************************************

            Population analysis using the SCF density.

 **********************************************************************

 Orbital symmetries:
       Occupied  (A) (A) (T) (T) (T)
       Virtual   (A) (T) (T) (T) (T) (T) (T) (A) (T) (T) (T) (A)
                 (E) (E) (T) (T) (T) (T) (T) (T) (T) (T) (T) (A)
                 (E) (E) (T) (T) (T) (T) (T) (T) (A) (T) (T) (T)
                 (A)
 The electronic state is 1-A.
 Alpha  occ. eigenvalues --  -11.19789  -0.95101  -0.54977  -0.54977  -0.54977
 Alpha virt. eigenvalues --    0.16359   0.23854   0.23854   0.23854   0.42918
 Alpha virt. eigenvalues --    0.42918   0.42918   0.77433   0.82115   0.82115
 Alpha virt. eigenvalues --    0.82115   0.93365   1.20395   1.20395   1.72174
 Alpha virt. eigenvalues --    1.72174   1.72174   1.74007   1.74007   1.74007
 Alpha virt. eigenvalues --    2.19462   2.19462   2.19462   2.55487   2.65392
 Alpha virt. eigenvalues --    2.65392   2.69640   2.69640   2.69640   2.94308
 Alpha virt. eigenvalues --    2.94308   2.94308   3.19638   4.23976   4.23976
 Alpha virt. eigenvalues --    4.23976  25.22231
          Condensed to atoms (all electrons):
               1          2          3          4          5
     1  C    4.699620   0.413705   0.413705   0.413705   0.413705
     2  H    0.413705   0.571716  -0.024677  -0.024677  -0.024677
     3  H    0.413705  -0.024677   0.571716  -0.024677  -0.024677
     4  H    0.413705  -0.024677  -0.024677   0.571716  -0.024677
     5  H    0.413705  -0.024677  -0.024677  -0.024677   0.571716
 Mulliken charges:
               1
     1  C   -0.354442
     2  H    0.088610
     3  H    0.088610
     4  H    0.088610
     5  H    0.088610
 Sum of Mulliken charges =  -0.00000
 Mulliken charges with hydrogens summed into heavy atoms:
               1
     1  C   -0.000000
 Electronic spatial extent (au):  <R**2>=             34.9916
 Charge=             -0.0000 electrons
 Dipole moment (field-independent basis, Debye):
    X=              0.0000    Y=              0.0000    Z=              0.0000  Tot=              0.0000
 Quadrupole moment (field-independent basis, Debye-Ang):
   XX=             -8.3561   YY=             -8.3561   ZZ=             -8.3561
   XY=              0.0000   XZ=              0.0000   YZ=              0.0000
 Traceless Quadrupole moment (field-independent basis, Debye-Ang):
   XX=              0.0000   YY=              0.0000   ZZ=             -0.0000
   XY=              0.0000   XZ=              0.0000   YZ=              0.0000
 Octapole moment (field-independent basis, Debye-Ang**2):
  XXX=              0.0000  YYY=             -0.0000  ZZZ=              0.0000  XYY=              0.0000
  XXY=             -0.0000  XXZ=              0.0000  XZZ=              0.0000  YZZ=              0.0000
  YYZ=              0.0000  XYZ=              0.6438
 Hexadecapole moment (field-independent basis, Debye-Ang**3):
 XXXX=            -15.9559 YYYY=            -15.9559 ZZZZ=            -15.9559 XXXY=             -0.0000
 XXXZ=              0.0000 YYYX=             -0.0000 YYYZ=              0.0000 ZZZX=              0.0000
 ZZZY=             -0.0000 XXYY=             -4.8423 XXZZ=             -4.8423 YYZZ=             -4.8423
 XXYZ=              0.0000 YYXZ=              0.0000 ZZXY=              0.0000
 N-N= 1.368651854178D+01 E-N=-1.204640983649D+02  KE= 4.027059476694D+01
 Symmetry A    KE= 3.448604486921D+01
 Symmetry B1   KE= 1.928183299241D+00
 Symmetry B2   KE= 1.928183299241D+00
 Symmetry B3   KE= 1.928183299241D+00
 No NMR shielding tensors so no spin-rotation constants.
 Leave Link  601 at Tue Sep 10 12:45:27 2024, MaxMem=   104857600 cpu:               0.1 elap:               0.1
 (Enter /usr/local/g16/l701.exe)
 ... and contract with generalized density number  0.
 Compute integral first derivatives.
 Leave Link  701 at Tue Sep 10 12:45:27 2024, MaxMem=   104857600 cpu:               0.1 elap:               0.1
 (Enter /usr/local/g16/l702.exe)
 L702 exits ... SP integral derivatives will be done elsewhere.
 Leave Link  702 at Tue Sep 10 12:45:27 2024, MaxMem=   104857600 cpu:               0.0 elap:               0.0
 (Enter /usr/local/g16/l703.exe)
 Integral derivatives from FoFJK, PRISM(SPDF).
 Compute integral first derivatives, UseDBF=F ICtDFT=           0.
 Calling FoFJK, ICntrl=      2127 FMM=F ISym2X=1 I1Cent= 0 IOpClX= 0 NMat=1 NMatS=1 NMatT=0.
 FoFJK:  IHMeth= 1 ICntrl=    2127 DoSepK=F KAlg= 0 I1Cent=           0 FoldK=F
 IRaf=         0 NMat=       1 IRICut=       1 DoRegI=T DoRafI=F ISym2E= 1 IDoP0=0 IntGTp=1.
 FoFCou: FMM=F IPFlag=           0 FMFlag=      100000 FMFlg1=         800
         NFxFlg=           0 DoJE=F BraDBF=F KetDBF=F FulRan=T
         wScrn=  0.000000 ICntrl=      2127 IOpCl=  0 I1Cent=           0 NGrid=           0
         NMat0=    1 NMatS0=      1 NMatT0=    0 NMatD0=    1 NMtDS0=    0 NMtDT0=    0
 Petite list used in FoFCou.
 Leave Link  703 at Tue Sep 10 12:45:27 2024, MaxMem=   104857600 cpu:               0.1 elap:               0.1
 (Enter /usr/local/g16/l716.exe)
 Dipole        = 2.22044605D-16 0.00000000D+00 4.44089210D-16
 ***** Axes restored to original set *****
 -------------------------------------------------------------------
 Center     Atomic                   Forces (Hartrees/Bohr)
 Number     Number              X              Y              Z
 -------------------------------------------------------------------
      1        6           0.000000000   -0.000000000    0.000000000
      2        1           0.003528283   -0.009979877   -0.000000009
      3        1           0.003528472    0.004989869    0.008642790
      4        1           0.003528458    0.004989880   -0.008642790
      5        1          -0.010585213    0.000000128    0.000000009
 -------------------------------------------------------------------
 Cartesian Forces:  Max     0.010585213 RMS     0.005466181
 Leave Link  716 at Tue Sep 10 12:45:27 2024, MaxMem=   104857600 cpu:               0.0 elap:               0.0
 (Enter /usr/local/g16/l103.exe)

 GradGradGradGradGradGradGradGradGradGradGradGradGradGradGradGradGradGrad
 Berny optimization.
 FormGI is forming the generalized inverse of G from B-inverse, IUseBI=4.
 Internal  Forces:  Max     0.010585213 RMS     0.005658034
 Search for a local minimum.
 Step number   1 out of a maximum of   24
 All quantities printed in internal units (Hartrees-Bohrs-Radians)
 RMS Force = .56580D-02 SwitMx=.10000D-02 MixMth= 1
 Mixed Optimization -- RFO/linear search
 Second derivative matrix not updated -- first step.
 The second derivative matrix:
                          R1        R2        R3        R4        A1
           R1           0.37230
           R2           0.00000   0.37230
           R3           0.00000   0.00000   0.37230
           R4           0.00000   0.00000   0.00000   0.37230
           A1           0.00000   0.00000   0.00000   0.00000   0.16000
           A2           0.00000   0.00000   0.00000   0.00000   0.00000
           A3           0.00000   0.00000   0.00000   0.00000   0.00000
           A4           0.00000   0.00000   0.00000   0.00000   0.00000
           A5           0.00000   0.00000   0.00000   0.00000   0.00000
           A6           0.00000   0.00000   0.00000   0.00000   0.00000
           D1           0.00000   0.00000   0.00000   0.00000   0.00000
           D2           0.00000   0.00000   0.00000   0.00000   0.00000
           D3           0.00000   0.00000   0.00000   0.00000   0.00000
           D4           0.00000   0.00000   0.00000   0.00000   0.00000
                          A2        A3        A4        A5        A6
           A2           0.16000
           A3           0.00000   0.16000
           A4           0.00000   0.00000   0.16000
           A5           0.00000   0.00000   0.00000   0.16000
           A6           0.00000   0.00000   0.00000   0.00000   0.16000
           D1           0.00000   0.00000   0.00000   0.00000   0.00000
           D2           0.00000   0.00000   0.00000   0.00000   0.00000
           D3           0.00000   0.00000   0.00000   0.00000   0.00000
           D4           0.00000   0.00000   0.00000   0.00000   0.00000
                          D1        D2        D3        D4
           D1           0.00499
           D2           0.00000   0.00499
           D3           0.00000   0.00000   0.00499
           D4           0.00000   0.00000   0.00000   0.00499
 ITU=  0
     Eigenvalues ---    0.05269   0.05891   0.08766   0.16000   0.16000
     Eigenvalues ---    0.37230   0.37230   0.37230   0.37230
 RFO step:  Lambda=-1.19996168D-03 EMin= 5.26881006D-02
 Linear search not attempted -- first point.
 Iteration  1 RMS(Cart)=  0.01514864 RMS(Int)=  0.00000000
 Iteration  2 RMS(Cart)=  0.00000000 RMS(Int)=  0.00000000
 ITry= 1 IFail=0 DXMaxC= 2.83D-02 DCOld= 1.00D+10 DXMaxT= 3.00D-01 DXLimC= 3.00D+00 Rises=F
 ClnCor:  largest displacement from symmetrization is 1.58D-14 for atom     3.
 Variable       Old X    -DE/DX   Delta X   Delta X   Delta X     New X
                                 (Linear)    (Quad)   (Total)
    R1        2.02201   0.01059   0.00000   0.02834   0.02834   2.05035
    R2        2.02201   0.01059   0.00000   0.02834   0.02834   2.05035
    R3        2.02201   0.01059   0.00000   0.02834   0.02834   2.05035
    R4        2.02201   0.01059   0.00000   0.02834   0.02834   2.05035
    A1        1.91063   0.00000   0.00000   0.00000  -0.00000   1.91063
    A2        1.91063  -0.00000   0.00000  -0.00000   0.00000   1.91063
    A3        1.91063   0.00000   0.00000   0.00000   0.00000   1.91063
    A4        1.91063   0.00000   0.00000   0.00000   0.00000   1.91063
    A5        1.91063  -0.00000   0.00000  -0.00000   0.00000   1.91063
    A6        1.91063  -0.00000   0.00000  -0.00000   0.00000   1.91063
    D1       -2.09440  -0.00000   0.00000  -0.00000   0.00000  -2.09440
    D2        2.09440  -0.00000   0.00000  -0.00000  -0.00000   2.09440
    D3       -2.09440  -0.00000   0.00000  -0.00000   0.00000  -2.09440
    D4        2.09440   0.00000   0.00000   0.00000   0.00000   2.09440
         Item               Value     Threshold  Converged?
 Maximum Force            0.010585     0.000450     NO 
 RMS     Force            0.005658     0.000300     NO 
 Maximum Displacement     0.028341     0.001800     NO 
 RMS     Displacement     0.015149     0.001200     NO 
 Predicted change in Energy=-6.019084D-04
 Lowest energy point so far.  Saving SCF results.
 GradGradGradGradGradGradGradGradGradGradGradGradGradGradGradGradGradGrad

 Leave Link  103 at Tue Sep 10 12:45:27 2024, MaxMem=   104857600 cpu:               0.0 elap:               0.0
 (Enter /usr/local/g16/l202.exe)
                          Input orientation:                          
 ---------------------------------------------------------------------
 Center     Atomic      Atomic             Coordinates (Angstroms)
 Number     Number       Type             X           Y           Z
 ---------------------------------------------------------------------
      1          6           0       -0.670996    0.685426   -0.000000
      2          1           0       -0.309342   -0.337524   -0.000001
      3          1           0       -0.309323    1.196893    0.885896
      4          1           0       -0.309325    1.196894   -0.885896
      5          1           0       -1.755993    0.685439    0.000001
 ---------------------------------------------------------------------
                    Distance matrix (angstroms):
                    1          2          3          4          5
     1  C    0.000000
     2  H    1.084997   0.000000
     3  H    1.084997   1.771793   0.000000
     4  H    1.084997   1.771793   1.771793   0.000000
     5  H    1.084997   1.771793   1.771793   1.771793   0.000000
 Stoichiometry    CH4
 Framework group  TD[O(C),4C3(H)]
 Deg. of freedom     1
 Full point group                 TD      NOp  24
 Omega: Change in point group or standard orientation.

 Old FWG=T    [O(C1),4C3(H1)]
 New FWG=TD   [O(C1),4C3(H1)]
 RotChk:  IX=0 Diff= 8.27D-15
 Largest Abelian subgroup         D2      NOp   4
 Largest concise Abelian subgroup D2      NOp   4
                         Standard orientation:                         
 ---------------------------------------------------------------------
 Center     Atomic      Atomic             Coordinates (Angstroms)
 Number     Number       Type             X           Y           Z
 ---------------------------------------------------------------------
      1          6           0        0.000000    0.000000    0.000000
      2          1           0        0.626423    0.626423    0.626423
      3          1           0       -0.626423   -0.626423    0.626423
      4          1           0       -0.626423    0.626423   -0.626423
      5          1           0        0.626423   -0.626423   -0.626423
 ---------------------------------------------------------------------
 Rotational constants (GHZ):         159.7372330         159.7372330         159.7372330
 Leave Link  202 at Tue Sep 10 12:45:28 2024, MaxMem=   104857600 cpu:               0.0 elap:               0.0
 (Enter /usr/local/g16/l301.exe)
 Standard basis: 6-311G(d,p) (5D, 7F)
 Ernie: Thresh=  0.10000D-02 Tol=  0.10000D-05 Strict=F.
 There are    13 symmetry adapted cartesian basis functions of A   symmetry.
 There are    10 symmetry adapted cartesian basis functions of B1  symmetry.
 There are    10 symmetry adapted cartesian basis functions of B2  symmetry.
 There are    10 symmetry adapted cartesian basis functions of B3  symmetry.
 There are    12 symmetry adapted basis functions of A   symmetry.
 There are    10 symmetry adapted basis functions of B1  symmetry.
 There are    10 symmetry adapted basis functions of B2  symmetry.
 There are    10 symmetry adapted basis functions of B3  symmetry.
    42 basis functions,    64 primitive gaussians,    43 cartesian basis functions
     5 alpha electrons        5 beta electrons
       nuclear repulsion energy        13.4973393754 Hartrees.
 IExCor=    0 DFT=F Ex=HF Corr=None ExCW=0 ScaHFX=  1.000000
 ScaDFX=  1.000000  1.000000  1.000000  1.000000 ScalE2=  1.000000  1.000000
 IRadAn=      5 IRanWt=     -1 IRanGd=            0 ICorTp=0 IEmpDi=  4
 NAtoms=    5 NActive=    5 NUniq=    2 SFac= 4.00D+00 NAtFMM=   60 NAOKFM=F Big=F
 Integral buffers will be    131072 words long.
 Raffenetti 1 integral format.
 Two-electron integral symmetry is turned on.
 Leave Link  301 at Tue Sep 10 12:45:28 2024, MaxMem=   104857600 cpu:               0.0 elap:               0.0
 (Enter /usr/local/g16/l302.exe)
 NPDir=0 NMtPBC=     1 NCelOv=     1 NCel=       1 NClECP=     1 NCelD=      1
         NCelK=      1 NCelE2=     1 NClLst=     1 CellRange=     0.0.
 One-electron integrals computed using PRISM.
 One-electron integral symmetry used in STVInt
 NBasis=    42 RedAO= T EigKep=  1.25D-02  NBF=    12    10    10    10
 NBsUse=    42 1.00D-06 EigRej= -1.00D+00 NBFU=    12    10    10    10
 Leave Link  302 at Tue Sep 10 12:45:28 2024, MaxMem=   104857600 cpu:               0.1 elap:               0.1
 (Enter /usr/local/g16/l303.exe)
 DipDrv:  MaxL=1.
 Leave Link  303 at Tue Sep 10 12:45:28 2024, MaxMem=   104857600 cpu:               0.0 elap:               0.0
 (Enter /usr/local/g16/l401.exe)
 Initial guess from the checkpoint file:  "methan.chk"
 B after Tr=    -0.000000    0.000000   -0.000000
         Rot=    1.000000   -0.000000   -0.000000    0.000000 Ang=   0.00 deg.
 Guess basis will be translated and rotated to current coordinates.
 JPrj=2 DoOrth=T DoCkMO=T.
 Initial guess orbital symmetries:
       Occupied  (A1) (A1) (T2) (T2) (T2)
       Virtual   (A1) (T2) (T2) (T2) (T2) (T2) (T2) (A1) (T2) (T2)
                 (T2) (A1) (E) (E) (T2) (T2) (T2) (T1) (T1) (T1)
                 (T2) (T2) (T2) (A1) (E) (E) (T2) (T2) (T2) (T2)
                 (T2) (T2) (A1) (T2) (T2) (T2) (A1)
 The electronic state of the initial guess is 1-A1.
 Generating alternative initial guess.
 ExpMin= 1.03D-01 ExpMax= 4.56D+03 ExpMxC= 6.82D+02 IAcc=2 IRadAn=         4 AccDes= 0.00D+00
 Harris functional with IExCor=  205 and IRadAn=       4 diagonalized for initial guess.
 HarFok:  IExCor=  205 AccDes= 0.00D+00 IRadAn=         4 IDoV= 1 UseB2=F ITyADJ=14
 ICtDFT=  3500011 ScaDFX=  1.000000  1.000000  1.000000  1.000000
 FoFCou: FMM=F IPFlag=           0 FMFlag=      100000 FMFlg1=           0
         NFxFlg=           0 DoJE=T BraDBF=F KetDBF=T FulRan=T
         wScrn=  0.000000 ICntrl=       500 IOpCl=  0 I1Cent=   200000004 NGrid=           0
         NMat0=    1 NMatS0=      1 NMatT0=    0 NMatD0=    1 NMtDS0=    0 NMtDT0=    0
 Petite list used in FoFCou.
 Harris En= -40.3921854407772    
 Leave Link  401 at Tue Sep 10 12:45:28 2024, MaxMem=   104857600 cpu:               0.1 elap:               0.1
 (Enter /usr/local/g16/l502.exe)
 Keep R1 ints in memory in symmetry-blocked form, NReq=1249092.
 FoFCou: FMM=F IPFlag=           0 FMFlag=           0 FMFlg1=           0
         NFxFlg=           0 DoJE=F BraDBF=F KetDBF=F FulRan=T
         wScrn=  0.000000 ICntrl=       600 IOpCl=  0 I1Cent=           0 NGrid=           0
         NMat0=    1 NMatS0=    903 NMatT0=    0 NMatD0=    1 NMtDS0=    0 NMtDT0=    0
 Petite list used in FoFCou.
 Closed shell SCF:
 Using DIIS extrapolation, IDIIS=  1040.
 NGot=   104857600 LenX=   104746970 LenY=   104744680
 Requested convergence on RMS density matrix=1.00D-08 within 128 cycles.
 Requested convergence on MAX density matrix=1.00D-06.
 Requested convergence on             energy=1.00D-06.
 No special actions if energy rises.

 Cycle   1  Pass 1  IDiag  1:
 E= -40.2088645951949    
 DIIS: error= 3.03D-03 at cycle   1 NSaved=   1.
 NSaved= 1 IEnMin= 1 EnMin= -40.2088645951949     IErMin= 1 ErrMin= 3.03D-03
 ErrMax= 3.03D-03  0.00D+00 EMaxC= 1.00D-01 BMatC= 1.69D-04 BMatP= 1.69D-04
 IDIUse=3 WtCom= 9.70D-01 WtEn= 3.03D-02
 Coeff-Com:  0.100D+01
 Coeff-En:   0.100D+01
 Coeff:      0.100D+01
 Gap=     0.708 Goal=   None    Shift=    0.000
 GapD=    0.708 DampG=2.000 DampE=1.000 DampFc=2.0000 IDamp=-1.
 RMSDP=1.86D-04 MaxDP=2.49D-03              OVMax= 3.74D-03

 Cycle   2  Pass 1  IDiag  1:
 E= -40.2089987927925     Delta-E=       -0.000134197598 Rises=F Damp=F
 DIIS: error= 6.46D-04 at cycle   2 NSaved=   2.
 NSaved= 2 IEnMin= 2 EnMin= -40.2089987927925     IErMin= 2 ErrMin= 6.46D-04
 ErrMax= 6.46D-04  0.00D+00 EMaxC= 1.00D-01 BMatC= 1.24D-05 BMatP= 1.69D-04
 IDIUse=3 WtCom= 9.94D-01 WtEn= 6.46D-03
 Coeff-Com:  0.829D-01 0.917D+00
 Coeff-En:   0.000D+00 0.100D+01
 Coeff:      0.824D-01 0.918D+00
 Gap=     0.709 Goal=   None    Shift=    0.000
 RMSDP=5.66D-05 MaxDP=1.41D-03 DE=-1.34D-04 OVMax= 1.21D-03

 Cycle   3  Pass 1  IDiag  1:
 E= -40.2090091924596     Delta-E=       -0.000010399667 Rises=F Damp=F
 DIIS: error= 2.08D-04 at cycle   3 NSaved=   3.
 NSaved= 3 IEnMin= 3 EnMin= -40.2090091924596     IErMin= 3 ErrMin= 2.08D-04
 ErrMax= 2.08D-04  0.00D+00 EMaxC= 1.00D-01 BMatC= 9.08D-07 BMatP= 1.24D-05
 IDIUse=3 WtCom= 9.98D-01 WtEn= 2.08D-03
 Coeff-Com: -0.424D-01 0.150D+00 0.892D+00
 Coeff-En:   0.000D+00 0.000D+00 0.100D+01
 Coeff:     -0.424D-01 0.150D+00 0.893D+00
 Gap=     0.708 Goal=   None    Shift=    0.000
 RMSDP=1.53D-05 MaxDP=2.03D-04 DE=-1.04D-05 OVMax= 3.14D-04

 Cycle   4  Pass 1  IDiag  1:
 E= -40.2090101625409     Delta-E=       -0.000000970081 Rises=F Damp=F
 DIIS: error= 2.21D-05 at cycle   4 NSaved=   4.
 NSaved= 4 IEnMin= 4 EnMin= -40.2090101625409     IErMin= 4 ErrMin= 2.21D-05
 ErrMax= 2.21D-05  0.00D+00 EMaxC= 1.00D-01 BMatC= 6.90D-09 BMatP= 9.08D-07
 IDIUse=1 WtCom= 1.00D+00 WtEn= 0.00D+00
 Coeff-Com:  0.762D-02-0.417D-01-0.188D+00 0.122D+01
 Coeff:      0.762D-02-0.417D-01-0.188D+00 0.122D+01
 Gap=     0.708 Goal=   None    Shift=    0.000
 RMSDP=3.28D-06 MaxDP=4.60D-05 DE=-9.70D-07 OVMax= 4.97D-05

 Cycle   5  Pass 1  IDiag  1:
 E= -40.2090101760274     Delta-E=       -0.000000013487 Rises=F Damp=F
 DIIS: error= 1.78D-06 at cycle   5 NSaved=   5.
 NSaved= 5 IEnMin= 5 EnMin= -40.2090101760274     IErMin= 5 ErrMin= 1.78D-06
 ErrMax= 1.78D-06  0.00D+00 EMaxC= 1.00D-01 BMatC= 7.93D-11 BMatP= 6.90D-09
 IDIUse=1 WtCom= 1.00D+00 WtEn= 0.00D+00
 Coeff-Com: -0.642D-03 0.480D-02 0.189D-01-0.207D+00 0.118D+01
 Coeff:     -0.642D-03 0.480D-02 0.189D-01-0.207D+00 0.118D+01
 Gap=     0.708 Goal=   None    Shift=    0.000
 RMSDP=4.05D-07 MaxDP=4.28D-06 DE=-1.35D-08 OVMax= 5.48D-06

 Cycle   6  Pass 1  IDiag  1:
 E= -40.2090101762133     Delta-E=       -0.000000000186 Rises=F Damp=F
 DIIS: error= 2.62D-07 at cycle   6 NSaved=   6.
 NSaved= 6 IEnMin= 6 EnMin= -40.2090101762133     IErMin= 6 ErrMin= 2.62D-07
 ErrMax= 2.62D-07  0.00D+00 EMaxC= 1.00D-01 BMatC= 1.75D-12 BMatP= 7.93D-11
 IDIUse=1 WtCom= 1.00D+00 WtEn= 0.00D+00
 Coeff-Com:  0.135D-03-0.101D-02-0.461D-02 0.537D-01-0.379D+00 0.133D+01
 Coeff:      0.135D-03-0.101D-02-0.461D-02 0.537D-01-0.379D+00 0.133D+01
 Gap=     0.708 Goal=   None    Shift=    0.000
 RMSDP=7.06D-08 MaxDP=5.97D-07 DE=-1.86D-10 OVMax= 8.92D-07

 Cycle   7  Pass 1  IDiag  1:
 E= -40.2090101762175     Delta-E=       -0.000000000004 Rises=F Damp=F
 DIIS: error= 2.82D-08 at cycle   7 NSaved=   7.
 NSaved= 7 IEnMin= 7 EnMin= -40.2090101762175     IErMin= 7 ErrMin= 2.82D-08
 ErrMax= 2.82D-08  0.00D+00 EMaxC= 1.00D-01 BMatC= 2.26D-14 BMatP= 1.75D-12
 IDIUse=1 WtCom= 1.00D+00 WtEn= 0.00D+00
 Coeff-Com: -0.265D-04 0.211D-03 0.953D-03-0.118D-01 0.887D-01-0.379D+00
 Coeff-Com:  0.130D+01
 Coeff:     -0.265D-04 0.211D-03 0.953D-03-0.118D-01 0.887D-01-0.379D+00
 Coeff:      0.130D+01
 Gap=     0.708 Goal=   None    Shift=    0.000
 RMSDP=8.89D-09 MaxDP=1.21D-07 DE=-4.18D-12 OVMax= 1.08D-07

 SCF Done:  E(RHF) =  -40.2090101762     A.U. after    7 cycles
            NFock=  7  Conv=0.89D-08     -V/T= 2.0006
 KE= 4.018302413220D+01 PE=-1.200201979436D+02 EE= 2.613082425979D+01
 Leave Link  502 at Tue Sep 10 12:45:28 2024, MaxMem=   104857600 cpu:               0.1 elap:               0.1
 (Enter /usr/local/g16/l701.exe)
 ... and contract with generalized density number  0.
 Compute integral first derivatives.
 Leave Link  701 at Tue Sep 10 12:45:28 2024, MaxMem=   104857600 cpu:               0.1 elap:               0.1
 (Enter /usr/local/g16/l702.exe)
 L702 exits ... SP integral derivatives will be done elsewhere.
 Leave Link  702 at Tue Sep 10 12:45:28 2024, MaxMem=   104857600 cpu:               0.0 elap:               0.0
 (Enter /usr/local/g16/l703.exe)
 Integral derivatives from FoFJK, PRISM(SPDF).
 Compute integral first derivatives, UseDBF=F ICtDFT=           0.
 Calling FoFJK, ICntrl=      2127 FMM=F ISym2X=1 I1Cent= 0 IOpClX= 0 NMat=1 NMatS=1 NMatT=0.
 FoFJK:  IHMeth= 1 ICntrl=    2127 DoSepK=F KAlg= 0 I1Cent=           0 FoldK=F
 IRaf=         0 NMat=       1 IRICut=       1 DoRegI=T DoRafI=F ISym2E= 1 IDoP0=0 IntGTp=1.
 FoFCou: FMM=F IPFlag=           0 FMFlag=      100000 FMFlg1=         800
         NFxFlg=           0 DoJE=F BraDBF=F KetDBF=F FulRan=T
         wScrn=  0.000000 ICntrl=      2127 IOpCl=  0 I1Cent=           0 NGrid=           0
         NMat0=    1 NMatS0=      1 NMatT0=    0 NMatD0=    1 NMtDS0=    0 NMtDT0=    0
 Petite list used in FoFCou.
 Leave Link  703 at Tue Sep 10 12:45:28 2024, MaxMem=   104857600 cpu:               0.1 elap:               0.1
 (Enter /usr/local/g16/l716.exe)
 Dipole        =-2.22044605D-16 0.00000000D+00 4.44089210D-16
 ***** Axes restored to original set *****
 -------------------------------------------------------------------
 Center     Atomic                   Forces (Hartrees/Bohr)
 Number     Number              X              Y              Z
 -------------------------------------------------------------------
      1        6           0.000000000    0.000000000   -0.000000000
      2        1          -0.000178900    0.000506024    0.000000000
      3        1          -0.000178909   -0.000253009   -0.000438228
      4        1          -0.000178909   -0.000253009    0.000438228
      5        1           0.000536718   -0.000000007   -0.000000000
 -------------------------------------------------------------------
 Cartesian Forces:  Max     0.000536718 RMS     0.000277160
 Leave Link  716 at Tue Sep 10 12:45:28 2024, MaxMem=   104857600 cpu:               0.0 elap:               0.0
 (Enter /usr/local/g16/l103.exe)

 GradGradGradGradGradGradGradGradGradGradGradGradGradGradGradGradGradGrad
 Berny optimization.
 Using GEDIIS/GDIIS optimizer.
 FormGI is forming the generalized inverse of G from B-inverse, IUseBI=4.
 Internal  Forces:  Max     0.000536718 RMS     0.000286888
 Search for a local minimum.
 Step number   2 out of a maximum of   24
 All quantities printed in internal units (Hartrees-Bohrs-Radians)
 RMS Force = .28689D-03 SwitMx=.10000D-02 MixMth= 2
 Mixed Optimization -- En-DIIS/RFO-DIIS
 Update second derivatives using D2CorX and points    1    2
 DE= -5.61D-04 DEPred=-6.02D-04 R= 9.32D-01
 TightC=F SS=  1.41D+00  RLast= 5.67D-02 DXNew= 5.0454D-01 1.7004D-01
 Trust test= 9.32D-01 RLast= 5.67D-02 DXMaxT set to 3.00D-01
 The second derivative matrix:
                          R1        R2        R3        R4        A1
           R1           0.37734
           R2           0.00503   0.37734
           R3           0.00503   0.00503   0.37734
           R4           0.00503   0.00503   0.00503   0.37734
           A1           0.00000   0.00000   0.00000   0.00000   0.16000
           A2          -0.00000  -0.00000  -0.00000  -0.00000  -0.00000
           A3           0.00000   0.00000   0.00000   0.00000   0.00000
           A4          -0.00000  -0.00000  -0.00000  -0.00000  -0.00000
           A5          -0.00000  -0.00000  -0.00000  -0.00000  -0.00000
           A6           0.00000   0.00000   0.00000   0.00000   0.00000
           D1          -0.00000  -0.00000  -0.00000  -0.00000  -0.00000
           D2           0.00000   0.00000   0.00000   0.00000   0.00000
           D3          -0.00000  -0.00000  -0.00000  -0.00000  -0.00000
           D4          -0.00000  -0.00000  -0.00000  -0.00000  -0.00000
                          A2        A3        A4        A5        A6
           A2           0.16000
           A3          -0.00000   0.16000
           A4           0.00000  -0.00000   0.16000
           A5           0.00000  -0.00000   0.00000   0.16000
           A6          -0.00000   0.00000  -0.00000  -0.00000   0.16000
           D1           0.00000  -0.00000   0.00000   0.00000  -0.00000
           D2          -0.00000   0.00000  -0.00000  -0.00000   0.00000
           D3           0.00000  -0.00000   0.00000   0.00000  -0.00000
           D4           0.00000  -0.00000   0.00000   0.00000  -0.00000
                          D1        D2        D3        D4
           D1           0.00499
           D2          -0.00000   0.00499
           D3           0.00000  -0.00000   0.00499
           D4           0.00000  -0.00000   0.00000   0.00499
 ITU=  1  0
 Use linear search instead of GDIIS.
     Eigenvalues ---    0.05269   0.05891   0.08766   0.16000   0.16000
     Eigenvalues ---    0.37230   0.37230   0.37230   0.39244
 RFO step:  Lambda= 0.00000000D+00 EMin= 5.26881006D-02
 Quartic linear search produced a step of -0.05013.
 Iteration  1 RMS(Cart)=  0.00075936 RMS(Int)=  0.00000000
 Iteration  2 RMS(Cart)=  0.00000000 RMS(Int)=  0.00000000
 ITry= 1 IFail=0 DXMaxC= 1.42D-03 DCOld= 1.00D+10 DXMaxT= 3.00D-01 DXLimC= 3.00D+00 Rises=F
 ClnCor:  largest displacement from symmetrization is 1.38D-14 for atom     4.
 Variable       Old X    -DE/DX   Delta X   Delta X   Delta X     New X
                                 (Linear)    (Quad)   (Total)
    R1        2.05035  -0.00054  -0.00142   0.00000  -0.00142   2.04893
    R2        2.05035  -0.00054  -0.00142   0.00000  -0.00142   2.04893
    R3        2.05035  -0.00054  -0.00142  -0.00000  -0.00142   2.04893
    R4        2.05035  -0.00054  -0.00142  -0.00000  -0.00142   2.04893
    A1        1.91063  -0.00000  -0.00000  -0.00000   0.00000   1.91063
    A2        1.91063  -0.00000   0.00000  -0.00000   0.00000   1.91063
    A3        1.91063   0.00000   0.00000   0.00000   0.00000   1.91063
    A4        1.91063   0.00000   0.00000   0.00000  -0.00000   1.91063
    A5        1.91063  -0.00000   0.00000  -0.00000  -0.00000   1.91063
    A6        1.91063  -0.00000  -0.00000  -0.00000   0.00000   1.91063
    D1       -2.09440  -0.00000   0.00000  -0.00000   0.00000  -2.09440
    D2        2.09440  -0.00000  -0.00000  -0.00000   0.00000   2.09440
    D3       -2.09440   0.00000   0.00000   0.00000  -0.00000  -2.09440
    D4        2.09440   0.00000   0.00000   0.00000  -0.00000   2.09440
         Item               Value     Threshold  Converged?
 Maximum Force            0.000537     0.000450     NO 
 RMS     Force            0.000287     0.000300     YES
 Maximum Displacement     0.001421     0.001800     YES
 RMS     Displacement     0.000759     0.001200     YES
 Predicted change in Energy=-1.465875D-06
 Lowest energy point so far.  Saving SCF results.
 GradGradGradGradGradGradGradGradGradGradGradGradGradGradGradGradGradGrad

 Leave Link  103 at Tue Sep 10 12:45:28 2024, MaxMem=   104857600 cpu:               0.0 elap:               0.0
 (Enter /usr/local/g16/l202.exe)
                          Input orientation:                          
 ---------------------------------------------------------------------
 Center     Atomic      Atomic             Coordinates (Angstroms)
 Number     Number       Type             X           Y           Z
 ---------------------------------------------------------------------
      1          6           0       -0.670996    0.685426    0.000000
      2          1           0       -0.309593   -0.336815   -0.000001
      3          1           0       -0.309574    1.196539    0.885283
      4          1           0       -0.309575    1.196540   -0.885283
      5          1           0       -1.755241    0.685439    0.000001
 ---------------------------------------------------------------------
                    Distance matrix (angstroms):
                    1          2          3          4          5
     1  C    0.000000
     2  H    1.084245   0.000000
     3  H    1.084245   1.770565   0.000000
     4  H    1.084245   1.770565   1.770565   0.000000
     5  H    1.084245   1.770565   1.770565   1.770565   0.000000
 Stoichiometry    CH4
 Framework group  TD[O(C),4C3(H)]
 Deg. of freedom     1
 Full point group                 TD      NOp  24
 RotChk:  IX=0 Diff= 9.18D-16
 Largest Abelian subgroup         D2      NOp   4
 Largest concise Abelian subgroup D2      NOp   4
                         Standard orientation:                         
 ---------------------------------------------------------------------
 Center     Atomic      Atomic             Coordinates (Angstroms)
 Number     Number       Type             X           Y           Z
 ---------------------------------------------------------------------
      1          6           0        0.000000    0.000000    0.000000
      2          1           0        0.625989    0.625989    0.625989
      3          1           0       -0.625989   -0.625989    0.625989
      4          1           0       -0.625989    0.625989   -0.625989
      5          1           0        0.625989   -0.625989   -0.625989
 ---------------------------------------------------------------------
 Rotational constants (GHZ):         159.9588192         159.9588192         159.9588192
 Leave Link  202 at Tue Sep 10 12:45:28 2024, MaxMem=   104857600 cpu:               0.0 elap:               0.0
 (Enter /usr/local/g16/l301.exe)
 Standard basis: 6-311G(d,p) (5D, 7F)
 Ernie: Thresh=  0.10000D-02 Tol=  0.10000D-05 Strict=F.
 There are    13 symmetry adapted cartesian basis functions of A   symmetry.
 There are    10 symmetry adapted cartesian basis functions of B1  symmetry.
 There are    10 symmetry adapted cartesian basis functions of B2  symmetry.
 There are    10 symmetry adapted cartesian basis functions of B3  symmetry.
 There are    12 symmetry adapted basis functions of A   symmetry.
 There are    10 symmetry adapted basis functions of B1  symmetry.
 There are    10 symmetry adapted basis functions of B2  symmetry.
 There are    10 symmetry adapted basis functions of B3  symmetry.
    42 basis functions,    64 primitive gaussians,    43 cartesian basis functions
     5 alpha electrons        5 beta electrons
       nuclear repulsion energy        13.5066978347 Hartrees.
 IExCor=    0 DFT=F Ex=HF Corr=None ExCW=0 ScaHFX=  1.000000
 ScaDFX=  1.000000  1.000000  1.000000  1.000000 ScalE2=  1.000000  1.000000
 IRadAn=      5 IRanWt=     -1 IRanGd=            0 ICorTp=0 IEmpDi=  4
 NAtoms=    5 NActive=    5 NUniq=    2 SFac= 4.00D+00 NAtFMM=   60 NAOKFM=F Big=F
 Integral buffers will be    131072 words long.
 Raffenetti 1 integral format.
 Two-electron integral symmetry is turned on.
 Leave Link  301 at Tue Sep 10 12:45:28 2024, MaxMem=   104857600 cpu:               0.0 elap:               0.0
 (Enter /usr/local/g16/l302.exe)
 NPDir=0 NMtPBC=     1 NCelOv=     1 NCel=       1 NClECP=     1 NCelD=      1
         NCelK=      1 NCelE2=     1 NClLst=     1 CellRange=     0.0.
 One-electron integrals computed using PRISM.
 One-electron integral symmetry used in STVInt
 NBasis=    42 RedAO= T EigKep=  1.25D-02  NBF=    12    10    10    10
 NBsUse=    42 1.00D-06 EigRej= -1.00D+00 NBFU=    12    10    10    10
 Leave Link  302 at Tue Sep 10 12:45:28 2024, MaxMem=   104857600 cpu:               0.1 elap:               0.1
 (Enter /usr/local/g16/l303.exe)
 DipDrv:  MaxL=1.
 Leave Link  303 at Tue Sep 10 12:45:28 2024, MaxMem=   104857600 cpu:               0.0 elap:               0.0
 (Enter /usr/local/g16/l401.exe)
 Initial guess from the checkpoint file:  "methan.chk"
 B after Tr=     0.000000   -0.000000   -0.000000
         Rot=    1.000000   -0.000000    0.000000    0.000000 Ang=   0.00 deg.
 Guess basis will be translated and rotated to current coordinates.
 JPrj=2 DoOrth=T DoCkMO=T.
 Initial guess orbital symmetries:
       Occupied  (A1) (A1) (T2) (T2) (T2)
       Virtual   (A1) (T2) (T2) (T2) (T2) (T2) (T2) (A1) (T2) (T2)
                 (T2) (A1) (E) (E) (T2) (T2) (T2) (T1) (T1) (T1)
                 (T2) (T2) (T2) (A1) (E) (E) (T2) (T2) (T2) (T2)
                 (T2) (T2) (A1) (T2) (T2) (T2) (A1)
 The electronic state of the initial guess is 1-A1.
 Leave Link  401 at Tue Sep 10 12:45:28 2024, MaxMem=   104857600 cpu:               0.1 elap:               0.1
 (Enter /usr/local/g16/l502.exe)
 Keep R1 ints in memory in symmetry-blocked form, NReq=1249092.
 FoFCou: FMM=F IPFlag=           0 FMFlag=           0 FMFlg1=           0
         NFxFlg=           0 DoJE=F BraDBF=F KetDBF=F FulRan=T
         wScrn=  0.000000 ICntrl=       600 IOpCl=  0 I1Cent=           0 NGrid=           0
         NMat0=    1 NMatS0=    903 NMatT0=    0 NMatD0=    1 NMtDS0=    0 NMtDT0=    0
 Petite list used in FoFCou.
 Closed shell SCF:
 Using DIIS extrapolation, IDIIS=  1040.
 NGot=   104857600 LenX=   104746970 LenY=   104744680
 Requested convergence on RMS density matrix=1.00D-08 within 128 cycles.
 Requested convergence on MAX density matrix=1.00D-06.
 Requested convergence on             energy=1.00D-06.
 No special actions if energy rises.

 Cycle   1  Pass 1  IDiag  1:
 E= -40.2090113433428    
 DIIS: error= 1.50D-04 at cycle   1 NSaved=   1.
 NSaved= 1 IEnMin= 1 EnMin= -40.2090113433428     IErMin= 1 ErrMin= 1.50D-04
 ErrMax= 1.50D-04  0.00D+00 EMaxC= 1.00D-01 BMatC= 4.12D-07 BMatP= 4.12D-07
 IDIUse=3 WtCom= 9.98D-01 WtEn= 1.50D-03
 Coeff-Com:  0.100D+01
 Coeff-En:   0.100D+01
 Coeff:      0.100D+01
 Gap=     0.708 Goal=   None    Shift=    0.000
 RMSDP=9.28D-06 MaxDP=1.25D-04              OVMax= 1.86D-04

 Cycle   2  Pass 1  IDiag  1:
 E= -40.2090116736158     Delta-E=       -0.000000330273 Rises=F Damp=F
 DIIS: error= 3.21D-05 at cycle   2 NSaved=   2.
 NSaved= 2 IEnMin= 2 EnMin= -40.2090116736158     IErMin= 2 ErrMin= 3.21D-05
 ErrMax= 3.21D-05  0.00D+00 EMaxC= 1.00D-01 BMatC= 3.09D-08 BMatP= 4.12D-07
 IDIUse=1 WtCom= 1.00D+00 WtEn= 0.00D+00
 Coeff-Com:  0.860D-01 0.914D+00
 Coeff:      0.860D-01 0.914D+00
 Gap=     0.708 Goal=   None    Shift=    0.000
 RMSDP=2.81D-06 MaxDP=7.02D-05 DE=-3.30D-07 OVMax= 5.97D-05

 Cycle   3  Pass 1  IDiag  1:
 E= -40.2090116995150     Delta-E=       -0.000000025899 Rises=F Damp=F
 DIIS: error= 1.02D-05 at cycle   3 NSaved=   3.
 NSaved= 3 IEnMin= 3 EnMin= -40.2090116995150     IErMin= 3 ErrMin= 1.02D-05
 ErrMax= 1.02D-05  0.00D+00 EMaxC= 1.00D-01 BMatC= 2.20D-09 BMatP= 3.09D-08
 IDIUse=1 WtCom= 1.00D+00 WtEn= 0.00D+00
 Coeff-Com: -0.427D-01 0.146D+00 0.896D+00
 Coeff:     -0.427D-01 0.146D+00 0.896D+00
 Gap=     0.708 Goal=   None    Shift=    0.000
 RMSDP=7.58D-07 MaxDP=1.01D-05 DE=-2.59D-08 OVMax= 1.55D-05

 Cycle   4  Pass 1  IDiag  1:
 E= -40.2090117018745     Delta-E=       -0.000000002359 Rises=F Damp=F
 DIIS: error= 1.08D-06 at cycle   4 NSaved=   4.
 NSaved= 4 IEnMin= 4 EnMin= -40.2090117018745     IErMin= 4 ErrMin= 1.08D-06
 ErrMax= 1.08D-06  0.00D+00 EMaxC= 1.00D-01 BMatC= 1.67D-11 BMatP= 2.20D-09
 IDIUse=1 WtCom= 1.00D+00 WtEn= 0.00D+00
 Coeff-Com:  0.769D-02-0.406D-01-0.190D+00 0.122D+01
 Coeff:      0.769D-02-0.406D-01-0.190D+00 0.122D+01
 Gap=     0.708 Goal=   None    Shift=    0.000
 RMSDP=1.62D-07 MaxDP=2.24D-06 DE=-2.36D-09 OVMax= 2.43D-06

 Cycle   5  Pass 1  IDiag  1:
 E= -40.2090117019073     Delta-E=       -0.000000000033 Rises=F Damp=F
 DIIS: error= 8.92D-08 at cycle   5 NSaved=   5.
 NSaved= 5 IEnMin= 5 EnMin= -40.2090117019073     IErMin= 5 ErrMin= 8.92D-08
 ErrMax= 8.92D-08  0.00D+00 EMaxC= 1.00D-01 BMatC= 1.95D-13 BMatP= 1.67D-11
 IDIUse=1 WtCom= 1.00D+00 WtEn= 0.00D+00
 Coeff-Com: -0.643D-03 0.464D-02 0.192D-01-0.207D+00 0.118D+01
 Coeff:     -0.643D-03 0.464D-02 0.192D-01-0.207D+00 0.118D+01
 Gap=     0.708 Goal=   None    Shift=    0.000
 RMSDP=2.01D-08 MaxDP=2.13D-07 DE=-3.28D-11 OVMax= 2.73D-07

 Cycle   6  Pass 1  IDiag  1:
 E= -40.2090117019078     Delta-E=       -0.000000000001 Rises=F Damp=F
 DIIS: error= 1.31D-08 at cycle   6 NSaved=   6.
 NSaved= 6 IEnMin= 6 EnMin= -40.2090117019078     IErMin= 6 ErrMin= 1.31D-08
 ErrMax= 1.31D-08  0.00D+00 EMaxC= 1.00D-01 BMatC= 4.39D-15 BMatP= 1.95D-13
 IDIUse=1 WtCom= 1.00D+00 WtEn= 0.00D+00
 Coeff-Com:  0.133D-03-0.956D-03-0.463D-02 0.534D-01-0.378D+00 0.133D+01
 Coeff:      0.133D-03-0.956D-03-0.463D-02 0.534D-01-0.378D+00 0.133D+01
 Gap=     0.708 Goal=   None    Shift=    0.000
 RMSDP=3.54D-09 MaxDP=3.02D-08 DE=-5.04D-13 OVMax= 4.46D-08

 SCF Done:  E(RHF) =  -40.2090117019     A.U. after    6 cycles
            NFock=  6  Conv=0.35D-08     -V/T= 2.0005
 KE= 4.018733437231D+01 PE=-1.200421892272D+02 EE= 2.613914531826D+01
 Leave Link  502 at Tue Sep 10 12:45:29 2024, MaxMem=   104857600 cpu:               0.1 elap:               0.1
 (Enter /usr/local/g16/l701.exe)
 ... and contract with generalized density number  0.
 Compute integral first derivatives.
 Leave Link  701 at Tue Sep 10 12:45:29 2024, MaxMem=   104857600 cpu:               0.1 elap:               0.1
 (Enter /usr/local/g16/l702.exe)
 L702 exits ... SP integral derivatives will be done elsewhere.
 Leave Link  702 at Tue Sep 10 12:45:29 2024, MaxMem=   104857600 cpu:               0.0 elap:               0.0
 (Enter /usr/local/g16/l703.exe)
 Integral derivatives from FoFJK, PRISM(SPDF).
 Compute integral first derivatives, UseDBF=F ICtDFT=           0.
 Calling FoFJK, ICntrl=      2127 FMM=F ISym2X=1 I1Cent= 0 IOpClX= 0 NMat=1 NMatS=1 NMatT=0.
 FoFJK:  IHMeth= 1 ICntrl=    2127 DoSepK=F KAlg= 0 I1Cent=           0 FoldK=F
 IRaf=         0 NMat=       1 IRICut=       1 DoRegI=T DoRafI=F ISym2E= 1 IDoP0=0 IntGTp=1.
 FoFCou: FMM=F IPFlag=           0 FMFlag=      100000 FMFlg1=         800
         NFxFlg=           0 DoJE=F BraDBF=F KetDBF=F FulRan=T
         wScrn=  0.000000 ICntrl=      2127 IOpCl=  0 I1Cent=           0 NGrid=           0
         NMat0=    1 NMatS0=      1 NMatT0=    0 NMatD0=    1 NMtDS0=    0 NMtDT0=    0
 Petite list used in FoFCou.
 Leave Link  703 at Tue Sep 10 12:45:29 2024, MaxMem=   104857600 cpu:               0.1 elap:               0.1
 (Enter /usr/local/g16/l716.exe)
 Dipole        =-4.44089210D-16-4.44089210D-16-8.88178420D-16
 ***** Axes restored to original set *****
 -------------------------------------------------------------------
 Center     Atomic                   Forces (Hartrees/Bohr)
 Number     Number              X              Y              Z
 -------------------------------------------------------------------
      1        6           0.000000000   -0.000000000    0.000000000
      2        1           0.000000033   -0.000000093   -0.000000000
      3        1           0.000000033    0.000000047    0.000000081
      4        1           0.000000033    0.000000047   -0.000000081
      5        1          -0.000000099    0.000000000    0.000000000
 -------------------------------------------------------------------
 Cartesian Forces:  Max     0.000000099 RMS     0.000000051
 Leave Link  716 at Tue Sep 10 12:45:29 2024, MaxMem=   104857600 cpu:               0.0 elap:               0.0
 (Enter /usr/local/g16/l103.exe)

 GradGradGradGradGradGradGradGradGradGradGradGradGradGradGradGradGradGrad
 Berny optimization.
 Using GEDIIS/GDIIS optimizer.
 FormGI is forming the generalized inverse of G from B-inverse, IUseBI=4.
 Internal  Forces:  Max     0.000000099 RMS     0.000000053
 Search for a local minimum.
 Step number   3 out of a maximum of   24
 All quantities printed in internal units (Hartrees-Bohrs-Radians)
 RMS Force = .52763D-07 SwitMx=.10000D-02 MixMth= 2
 Mixed Optimization -- En-DIIS/RFO-DIIS
 Swapping is turned off.
 Update second derivatives using D2CorX and points    1    2    3
 DE= -1.53D-06 DEPred=-1.47D-06 R= 1.04D+00
 TightC=F SS=  1.41D+00  RLast= 2.84D-03 DXNew= 5.0454D-01 8.5238D-03
 Trust test= 1.04D+00 RLast= 2.84D-03 DXMaxT set to 3.00D-01
 The second derivative matrix:
                          R1        R2        R3        R4        A1
           R1           0.37369
           R2           0.00139   0.37369
           R3           0.00139   0.00139   0.37369
           R4           0.00139   0.00139   0.00139   0.37369
           A1           0.00000   0.00000   0.00000   0.00000   0.16000
           A2           0.00000   0.00000   0.00000   0.00000   0.00000
           A3          -0.00000  -0.00000  -0.00000  -0.00000  -0.00000
           A4          -0.00000  -0.00000  -0.00000  -0.00000  -0.00000
           A5           0.00000   0.00000   0.00000   0.00000   0.00000
           A6          -0.00000  -0.00000  -0.00000  -0.00000  -0.00000
           D1          -0.00000  -0.00000  -0.00000  -0.00000  -0.00000
           D2           0.00000   0.00000   0.00000   0.00000   0.00000
           D3          -0.00000  -0.00000  -0.00000  -0.00000  -0.00000
           D4          -0.00000  -0.00000  -0.00000  -0.00000  -0.00000
                          A2        A3        A4        A5        A6
           A2           0.16000
           A3          -0.00000   0.16000
           A4          -0.00000   0.00000   0.16000
           A5           0.00000  -0.00000  -0.00000   0.16000
           A6          -0.00000   0.00000   0.00000  -0.00000   0.16000
           D1          -0.00000   0.00000   0.00000  -0.00000   0.00000
           D2           0.00000  -0.00000  -0.00000   0.00000  -0.00000
           D3          -0.00000   0.00000   0.00000  -0.00000   0.00000
           D4          -0.00000   0.00000   0.00000  -0.00000   0.00000
                          D1        D2        D3        D4
           D1           0.00499
           D2          -0.00000   0.00499
           D3           0.00000  -0.00000   0.00499
           D4           0.00000  -0.00000   0.00000   0.00499
 ITU=  1  1  0
     Eigenvalues ---    0.05269   0.05891   0.08766   0.16000   0.16000
     Eigenvalues ---    0.37230   0.37230   0.37230   0.37787
 En-DIIS/RFO-DIIS/Sim-DIIS IScMMF=       -3 using points:     3    2
 RFO step:  Lambda= 0.00000000D+00.
 NNeg= 0 NGDIIS= 2 SimSw=  2.50D-03 Rises=F DC= -1.53D-06 SmlDif=  1.00D-05
 NRisDI= 0 DoIntr=F SqrtH=F CThrHd= 10.0 CDAdj=  3.0
 RMS Error=  0.1396322563D-06 NUsed= 2 OKEnD=F EnDIS=F
 InvSVX:  RCond= 9.08D-06 Info=           0 Equed=N FErr=  8.88D-16 BErr=  5.15D-17
 DidBck=F Rises=F RFO-DIIS coefs:    0.99982    0.00018
 Iteration  1 RMS(Cart)=  0.00000014 RMS(Int)=  0.00000000
 ITry= 1 IFail=0 DXMaxC= 2.61D-07 DCOld= 1.00D+10 DXMaxT= 3.00D-01 DXLimC= 3.00D+00 Rises=F
 ClnCor:  largest displacement from symmetrization is 2.34D-14 for atom     5.
 Variable       Old X    -DE/DX   Delta X   Delta X   Delta X     New X
                                 (Linear)    (Quad)   (Total)
    R1        2.04893   0.00000   0.00000   0.00000   0.00000   2.04893
    R2        2.04893   0.00000   0.00000   0.00000   0.00000   2.04893
    R3        2.04893   0.00000   0.00000   0.00000   0.00000   2.04893
    R4        2.04893   0.00000   0.00000  -0.00000   0.00000   2.04893
    A1        1.91063  -0.00000   0.00000   0.00000   0.00000   1.91063
    A2        1.91063   0.00000   0.00000   0.00000   0.00000   1.91063
    A3        1.91063  -0.00000   0.00000  -0.00000  -0.00000   1.91063
    A4        1.91063  -0.00000   0.00000  -0.00000  -0.00000   1.91063
    A5        1.91063   0.00000   0.00000   0.00000   0.00000   1.91063
    A6        1.91063  -0.00000   0.00000  -0.00000   0.00000   1.91063
    D1       -2.09440  -0.00000   0.00000  -0.00000  -0.00000  -2.09440
    D2        2.09440  -0.00000   0.00000   0.00000   0.00000   2.09440
    D3       -2.09440  -0.00000   0.00000  -0.00000   0.00000  -2.09440
    D4        2.09440  -0.00000   0.00000  -0.00000  -0.00000   2.09440
         Item               Value     Threshold  Converged?
 Maximum Force            0.000000     0.000450     YES
 RMS     Force            0.000000     0.000300     YES
 Maximum Displacement     0.000000     0.001800     YES
 RMS     Displacement     0.000000     0.001200     YES
 Predicted change in Energy=-5.157185D-14
 Optimization completed.
    -- Stationary point found.
                           ----------------------------
                           !   Optimized Parameters   !
                           ! (Angstroms and Degrees)  !
 --------------------------                            --------------------------
 ! Name  Definition              Value          Derivative Info.                !
 --------------------------------------------------------------------------------
 ! R1    R(1,2)                  1.0842         -DE/DX =    0.0                 !
 ! R2    R(1,3)                  1.0842         -DE/DX =    0.0                 !
 ! R3    R(1,4)                  1.0842         -DE/DX =    0.0                 !
 ! R4    R(1,5)                  1.0842         -DE/DX =    0.0                 !
 ! A1    A(2,1,3)              109.4712         -DE/DX =    0.0                 !
 ! A2    A(2,1,4)              109.4712         -DE/DX =    0.0                 !
 ! A3    A(2,1,5)              109.4712         -DE/DX =    0.0                 !
 ! A4    A(3,1,4)              109.4712         -DE/DX =    0.0                 !
 ! A5    A(3,1,5)              109.4712         -DE/DX =    0.0                 !
 ! A6    A(4,1,5)              109.4712         -DE/DX =    0.0                 !
 ! D1    D(2,1,4,3)           -120.0            -DE/DX =    0.0                 !
 ! D2    D(2,1,5,3)            120.0            -DE/DX =    0.0                 !
 ! D3    D(2,1,5,4)           -120.0            -DE/DX =    0.0                 !
 ! D4    D(3,1,5,4)            120.0            -DE/DX =    0.0                 !
 --------------------------------------------------------------------------------
 Lowest energy point so far.  Saving SCF results.
 Largest change from initial coordinates is atom    5       0.014 Angstoms.
 GradGradGradGradGradGradGradGradGradGradGradGradGradGradGradGradGradGrad

 Leave Link  103 at Tue Sep 10 12:45:29 2024, MaxMem=   104857600 cpu:               0.0 elap:               0.0
 (Enter /usr/local/g16/l202.exe)
                          Input orientation:                          
 ---------------------------------------------------------------------
 Center     Atomic      Atomic             Coordinates (Angstroms)
 Number     Number       Type             X           Y           Z
 ---------------------------------------------------------------------
      1          6           0       -0.670996    0.685426    0.000000
      2          1           0       -0.309593   -0.336815   -0.000001
      3          1           0       -0.309574    1.196539    0.885283
      4          1           0       -0.309575    1.196540   -0.885283
      5          1           0       -1.755241    0.685439    0.000001
 ---------------------------------------------------------------------
                    Distance matrix (angstroms):
                    1          2          3          4          5
     1  C    0.000000
     2  H    1.084245   0.000000
     3  H    1.084245   1.770565   0.000000
     4  H    1.084245   1.770565   1.770565   0.000000
     5  H    1.084245   1.770565   1.770565   1.770565   0.000000
 Stoichiometry    CH4
 Framework group  TD[O(C),4C3(H)]
 Deg. of freedom     1
 Full point group                 TD      NOp  24
 RotChk:  IX=0 Diff= 2.30D-15
 Largest Abelian subgroup         D2      NOp   4
 Largest concise Abelian subgroup D2      NOp   4
                         Standard orientation:                         
 ---------------------------------------------------------------------
 Center     Atomic      Atomic             Coordinates (Angstroms)
 Number     Number       Type             X           Y           Z
 ---------------------------------------------------------------------
      1          6           0        0.000000    0.000000    0.000000
      2          1           0        0.625989    0.625989    0.625989
      3          1           0       -0.625989   -0.625989    0.625989
      4          1           0       -0.625989    0.625989   -0.625989
      5          1           0        0.625989   -0.625989   -0.625989
 ---------------------------------------------------------------------
 Rotational constants (GHZ):         159.9588192         159.9588192         159.9588192
 Leave Link  202 at Tue Sep 10 12:45:29 2024, MaxMem=   104857600 cpu:               0.0 elap:               0.0
 (Enter /usr/local/g16/l601.exe)
 Copying SCF densities to generalized density rwf, IOpCl= 0 IROHF=0.

 **********************************************************************

            Population analysis using the SCF density.

 **********************************************************************

 Orbital symmetries:
       Occupied  (A1) (A1) (T2) (T2) (T2)
       Virtual   (A1) (T2) (T2) (T2) (T2) (T2) (T2) (A1) (T2) (T2)
                 (T2) (A1) (E) (E) (T2) (T2) (T2) (T1) (T1) (T1)
                 (T2) (T2) (T2) (A1) (E) (E) (T2) (T2) (T2) (T2)
                 (T2) (T2) (A1) (T2) (T2) (T2) (A1)
 The electronic state is 1-A1.
 Alpha  occ. eigenvalues --  -11.20500  -0.94502  -0.54609  -0.54609  -0.54609
 Alpha virt. eigenvalues --    0.16226   0.23748   0.23748   0.23748   0.42768
 Alpha virt. eigenvalues --    0.42768   0.42768   0.75906   0.81458   0.81458
 Alpha virt. eigenvalues --    0.81458   0.93539   1.20256   1.20256   1.72132
 Alpha virt. eigenvalues --    1.72132   1.72132   1.72815   1.72815   1.72815
 Alpha virt. eigenvalues --    2.18452   2.18452   2.18452   2.53089   2.63048
 Alpha virt. eigenvalues --    2.63048   2.70062   2.70062   2.70062   2.91275
 Alpha virt. eigenvalues --    2.91275   2.91275   3.19063   4.20521   4.20521
 Alpha virt. eigenvalues --    4.20521  25.17599
          Condensed to atoms (all electrons):
               1          2          3          4          5
     1  C    4.714425   0.411295   0.411295   0.411295   0.411295
     2  H    0.411295   0.572732  -0.024643  -0.024643  -0.024643
     3  H    0.411295  -0.024643   0.572732  -0.024643  -0.024643
     4  H    0.411295  -0.024643  -0.024643   0.572732  -0.024643
     5  H    0.411295  -0.024643  -0.024643  -0.024643   0.572732
 Mulliken charges:
               1
     1  C   -0.359605
     2  H    0.089901
     3  H    0.089901
     4  H    0.089901
     5  H    0.089901
 Sum of Mulliken charges =  -0.00000
 Mulliken charges with hydrogens summed into heavy atoms:
               1
     1  C   -0.000000
 Electronic spatial extent (au):  <R**2>=             35.5340
 Charge=              0.0000 electrons
 Dipole moment (field-independent basis, Debye):
    X=              0.0000    Y=              0.0000    Z=              0.0000  Tot=              0.0000
 Quadrupole moment (field-independent basis, Debye-Ang):
   XX=             -8.4027   YY=             -8.4027   ZZ=             -8.4027
   XY=              0.0000   XZ=              0.0000   YZ=              0.0000
 Traceless Quadrupole moment (field-independent basis, Debye-Ang):
   XX=              0.0000   YY=             -0.0000   ZZ=              0.0000
   XY=              0.0000   XZ=              0.0000   YZ=              0.0000
 Octapole moment (field-independent basis, Debye-Ang**2):
  XXX=              0.0000  YYY=              0.0000  ZZZ=              0.0000  XYY=              0.0000
  XXY=              0.0000  XXZ=              0.0000  XZZ=              0.0000  YZZ=              0.0000
  YYZ=              0.0000  XYZ=              0.6811
 Hexadecapole moment (field-independent basis, Debye-Ang**3):
 XXXX=            -16.3295 YYYY=            -16.3295 ZZZZ=            -16.3295 XXXY=              0.0000
 XXXZ=              0.0000 YYYX=              0.0000 YYYZ=              0.0000 ZZZX=              0.0000
 ZZZY=              0.0000 XXYY=             -4.9400 XXZZ=             -4.9400 YYZZ=             -4.9400
 XXYZ=              0.0000 YYXZ=              0.0000 ZZXY=              0.0000
 N-N= 1.350669783473D+01 E-N=-1.200421892736D+02  KE= 4.018733437231D+01
 Symmetry A    KE= 3.447139608931D+01
 Symmetry B1   KE= 1.905312760999D+00
 Symmetry B2   KE= 1.905312760999D+00
 Symmetry B3   KE= 1.905312760999D+00
 No NMR shielding tensors so no spin-rotation constants.
 Leave Link  601 at Tue Sep 10 12:45:29 2024, MaxMem=   104857600 cpu:               0.1 elap:               0.1
 (Enter /usr/local/g16/l9999.exe)
 1\1\GINC-SV1-C724\FOpt\RHF\6-311G(d,p)\C1H4\LME\10-Sep-2024\0\\#p opt 
 freq hf/6-311g(d,p) geom=connectivity\\Title Card Required\\0,1\C,-0.6
 7099567,0.685425635,0.\H,-0.3095929392,-0.3368150606,-0.0000009149\H,-
 0.3095736147,1.1965388864,0.8852826191\H,-0.3095751087,1.1965399429,-0
 .8852826191\H,-1.7552410174,0.6854387713,0.0000009149\\Version=ES64L-G
 16RevA.03\State=1-A1\HF=-40.2090117\RMSD=3.545e-09\RMSF=5.097e-08\Dipo
 le=0.,0.,0.\Quadrupole=0.,0.,0.,0.,0.,0.\PG=TD [O(C1),4C3(H1)]\\@


 ACTORS ARE SO FORTUNATE.  THEY CAN CHOOSE WHETHER
 THEY WILL APPEAR IN A TRAGEDY OR IN COMEDY,
 WHETHER THEY WILL SUFFER OF MAKE MERRY,
 LAUGH OR SHED TEARS.  BUT IN REAL LIFE IT IS DIFFERENT.
 MOST MEN AND WOMEN ARE FORCED TO PERFORM
 PARTS FOR WHICH THEY HAVE NO QUALIFICATIONS.
 THE WORLD IS A STAGE, BUT THE PLAY IS BADLY CAST.

                                   -- OSCAR WILDE
 Leave Link 9999 at Tue Sep 10 12:45:29 2024, MaxMem=   104857600 cpu:               0.0 elap:               0.0
 Job cpu time:       0 days  0 hours  0 minutes  2.4 seconds.
 Elapsed time:       0 days  0 hours  0 minutes  2.3 seconds.
 File lengths (MBytes):  RWF=      6 Int=      0 D2E=      0 Chk=      1 Scr=      1
 Normal termination of Gaussian 16 at Tue Sep 10 12:45:29 2024.
 (Enter /usr/local/g16/l1.exe)
 Link1:  Proceeding to internal job step number  2.
 --------------------------------------------------------------------
 #P Geom=AllCheck Guess=TCheck SCRF=Check GenChk RHF/6-311G(d,p) Freq
 --------------------------------------------------------------------
 1/10=4,29=7,30=1,38=1,40=1/1,3;
 2/12=2,40=1/2;
 3/5=4,6=6,7=101,11=1,14=-4,25=1,30=1,70=2,71=2,116=1,140=1/1,2,3;
 4/5=101/1;
 5/5=2,38=6,98=1/2;
 8/6=4,10=90,11=11/1;
 10/13=10,15=4/2;
 11/6=3,8=1,9=11,15=111,16=1/1,2,10;
 10/6=1/2;
 6/7=2,8=2,9=2,10=2,28=1/1;
 7/8=1,10=1,25=1/1,2,3,16;
 1/10=4,30=1/3;
 99//99;
 Leave Link    1 at Tue Sep 10 12:45:29 2024, MaxMem=   104857600 cpu:               0.0 elap:               0.0
 (Enter /usr/local/g16/l101.exe)
 Structure from the checkpoint file:  "methan.chk"
 -------------------
 Title Card Required
 -------------------
 Charge =  0 Multiplicity = 1
 Redundant internal coordinates found in file.  (old form).
 C,0,-0.67099567,0.685425635,0.
 H,0,-0.3095929392,-0.3368150606,-0.0000009149
 H,0,-0.3095736147,1.1965388864,0.8852826191
 H,0,-0.3095751087,1.1965399429,-0.8852826191
 H,0,-1.7552410174,0.6854387713,0.0000009149
 Recover connectivity data from disk.
 ITRead=  0  0  0  0  0
 MicOpt= -1 -1 -1 -1 -1
 NAtoms=      5 NQM=        5 NQMF=       0 NMMI=      0 NMMIF=      0
                NMic=       0 NMicF=      0.
                    Isotopes and Nuclear Properties:
 (Nuclear quadrupole moments (NQMom) in fm**2, nuclear magnetic moments (NMagM)
  in nuclear magnetons)

  Atom         1           2           3           4           5
 IAtWgt=          12           1           1           1           1
 AtmWgt=  12.0000000   1.0078250   1.0078250   1.0078250   1.0078250
 NucSpn=           0           1           1           1           1
 AtZEff=   3.6000000   1.0000000   1.0000000   1.0000000   1.0000000
 NQMom=    0.0000000   0.0000000   0.0000000   0.0000000   0.0000000
 NMagM=    0.0000000   2.7928460   2.7928460   2.7928460   2.7928460
 AtZNuc=   6.0000000   1.0000000   1.0000000   1.0000000   1.0000000
 Leave Link  101 at Tue Sep 10 12:45:29 2024, MaxMem=   104857600 cpu:               0.1 elap:               0.1
 (Enter /usr/local/g16/l103.exe)

 GradGradGradGradGradGradGradGradGradGradGradGradGradGradGradGradGradGrad
 Berny optimization.
 Initialization pass.
                           ----------------------------
                           !    Initial Parameters    !
                           ! (Angstroms and Degrees)  !
 --------------------------                            --------------------------
 ! Name  Definition              Value          Derivative Info.                !
 --------------------------------------------------------------------------------
 ! R1    R(1,2)                  1.0842         calculate D2E/DX2 analytically  !
 ! R2    R(1,3)                  1.0842         calculate D2E/DX2 analytically  !
 ! R3    R(1,4)                  1.0842         calculate D2E/DX2 analytically  !
 ! R4    R(1,5)                  1.0842         calculate D2E/DX2 analytically  !
 ! A1    A(2,1,3)              109.4712         calculate D2E/DX2 analytically  !
 ! A2    A(2,1,4)              109.4712         calculate D2E/DX2 analytically  !
 ! A3    A(2,1,5)              109.4712         calculate D2E/DX2 analytically  !
 ! A4    A(3,1,4)              109.4712         calculate D2E/DX2 analytically  !
 ! A5    A(3,1,5)              109.4712         calculate D2E/DX2 analytically  !
 ! A6    A(4,1,5)              109.4712         calculate D2E/DX2 analytically  !
 ! D1    D(2,1,4,3)           -120.0            calculate D2E/DX2 analytically  !
 ! D2    D(2,1,5,3)            120.0            calculate D2E/DX2 analytically  !
 ! D3    D(2,1,5,4)           -120.0            calculate D2E/DX2 analytically  !
 ! D4    D(3,1,5,4)            120.0            calculate D2E/DX2 analytically  !
 --------------------------------------------------------------------------------
 Trust Radius=3.00D-01 FncErr=1.00D-07 GrdErr=1.00D-07 EigMax=2.50D+02 EigMin=1.00D-04
 Number of steps in this run=      2 maximum allowed number of steps=      2.
 GradGradGradGradGradGradGradGradGradGradGradGradGradGradGradGradGradGrad

 Leave Link  103 at Tue Sep 10 12:45:29 2024, MaxMem=   104857600 cpu:               0.0 elap:               0.0
 (Enter /usr/local/g16/l202.exe)
                          Input orientation:                          
 ---------------------------------------------------------------------
 Center     Atomic      Atomic             Coordinates (Angstroms)
[...]
      X   X                                                                                                                          
      X   X                                                                                                                          
      X   X                                                                                                                          
      X   X                                                                                                                          
      X   X                                                                                                                          
      X   X                                                                                                                          
      X   X                                                                                                                          
      X   X                                                                                                                          
      X   X                                                                                                                          
      X   X                                                                                                                          
      X   X                                                                                                                          
      X                                                                                                                              
      X                                                                                                                              
      X                                                                                                                              
      X                                                                                                                              
 
 ***** Axes restored to original set *****
 -------------------------------------------------------------------
 Center     Atomic                   Forces (Hartrees/Bohr)
 Number     Number              X              Y              Z
 -------------------------------------------------------------------
      1        6          -0.000000000   -0.000000000   -0.000000000
      2        1           0.000000033   -0.000000093   -0.000000000
      3        1           0.000000033    0.000000047    0.000000081
      4        1           0.000000033    0.000000047   -0.000000081
      5        1          -0.000000099    0.000000000    0.000000000
 -------------------------------------------------------------------
 Cartesian Forces:  Max     0.000000099 RMS     0.000000051
 Force constants in Cartesian coordinates: 
                1             2             3             4             5 
      1  0.599326D+00
      2  0.000000D+00  0.599326D+00
      3  0.000000D+00  0.000000D+00  0.599326D+00
      4 -0.861694D-01  0.900260D-01  0.000000D+00  0.870860D-01
      5  0.900260D-01 -0.308983D+00  0.000000D+00 -0.999194D-01  0.334386D+00
      6  0.000000D+00  0.000000D+00 -0.543416D-01  0.000000D+00  0.000000D+00
      7 -0.861728D-01 -0.450148D-01 -0.779687D-01  0.435820D-02  0.507429D-02
      8 -0.450148D-01 -0.118000D+00 -0.110261D+00 -0.130494D-01 -0.142017D-01
      9 -0.779686D-01 -0.110261D+00 -0.245321D+00  0.167437D-02  0.826546D-03
     10 -0.861725D-01 -0.450147D-01  0.779683D-01  0.435818D-02  0.507430D-02
     11 -0.450147D-01 -0.118001D+00  0.110261D+00 -0.130493D-01 -0.142018D-01
     12  0.779683D-01  0.110261D+00 -0.245321D+00 -0.167439D-02 -0.826574D-03
     13 -0.340811D+00  0.347579D-05  0.000000D+00 -0.963300D-02 -0.255259D-03
     14  0.346914D-05 -0.543416D-01  0.000000D+00  0.359921D-01  0.300089D-02
     15  0.000000D+00  0.000000D+00 -0.543416D-01  0.000000D+00  0.000000D+00
                6             7             8             9            10 
      6  0.517605D-01
      7  0.121377D-01  0.870898D-01
      8 -0.287694D-01  0.499617D-01  0.122415D+00
      9  0.193082D-02  0.865370D-01  0.122378D+00  0.263728D+00
     10 -0.121377D-01  0.435848D-02  0.797470D-02 -0.104639D-01  0.870895D-01
     11  0.287694D-01  0.797466D-02  0.999699D-02 -0.147978D-01  0.499616D-01
     12  0.193087D-02  0.104639D-01  0.147978D-01 -0.222682D-01 -0.865366D-01
     13  0.000000D+00 -0.963368D-02  0.127814D-03  0.221217D-03 -0.963362D-02
     14  0.000000D+00 -0.179958D-01 -0.209916D-03  0.185415D-02 -0.179959D-01
     15 -0.128062D-02 -0.311699D-01  0.185451D-02  0.193087D-02  0.311699D-01
               11            12            13            14            15 
     11  0.122415D+00
     12 -0.122378D+00  0.263728D+00
     13  0.127811D-03 -0.221197D-03  0.369712D+00
     14 -0.209911D-03 -0.185412D-02 -0.385194D-05  0.517605D-01
     15 -0.185452D-02  0.193082D-02  0.000000D+00  0.000000D+00  0.517605D-01
 FormGI is forming the generalized inverse of G from B-inverse, IUseBI=4.
 Force constants in internal coordinates: 
                1             2             3             4             5 
      1  0.369712D+00
      2  0.297035D-02  0.369712D+00
      3  0.297035D-02  0.297034D-02  0.369712D+00
      4  0.297034D-02  0.297035D-02  0.297035D-02  0.369712D+00
      5  0.207103D-02  0.207103D-02 -0.130042D-02 -0.284165D-02  0.221007D-01
      6  0.324581D-02 -0.837627D-03  0.361227D-02 -0.602045D-02 -0.967963D-02
      7  0.634293D-02 -0.509068D-02 -0.563514D-02  0.438289D-02 -0.145992D-01
      8 -0.837627D-03  0.324581D-02  0.361227D-02 -0.602045D-02 -0.967963D-02
      9 -0.509068D-02  0.634293D-02 -0.563514D-02  0.438289D-02 -0.145992D-01
     10 -0.573147D-02 -0.573147D-02  0.534616D-02  0.611677D-02  0.264569D-01
     11 -0.401119D-02 -0.401119D-02 -0.283143D-02  0.108538D-01 -0.152127D-01
     12  0.330333D-02  0.330333D-02 -0.849429D-02  0.188762D-02  0.918751D-02
     13 -0.434973D-02  0.765306D-02 -0.424714D-02  0.943810D-03  0.459375D-02
     14 -0.765306D-02  0.434973D-02  0.424714D-02 -0.943809D-03 -0.459375D-02
                6             7             8             9            10 
      6  0.417958D-01
      7 -0.253255D-01  0.816481D-01
      8 -0.209227D-02  0.273441D-01  0.417958D-01
      9  0.273442D-01 -0.393745D-01 -0.253255D-01  0.816481D-01
     10 -0.320425D-01 -0.296930D-01 -0.320425D-01 -0.296930D-01  0.970141D-01
     11 -0.124583D-01  0.166441D-01 -0.124583D-01  0.166441D-01  0.684097D-02
     12 -0.106189D-01  0.800690D-02 -0.106189D-01  0.800690D-02 -0.396345D-02
     13 -0.160586D-01 -0.798536D-03  0.543963D-02  0.880544D-02 -0.198172D-02
     14 -0.543963D-02 -0.880544D-02  0.160586D-01  0.798536D-03  0.198172D-02
               11            12            13            14 
     11  0.338898D-01
     12  0.175313D-02  0.210588D-01
     13  0.876565D-03  0.105294D-01  0.213702D-01
     14 -0.876566D-03 -0.105294D-01  0.108408D-01  0.213702D-01
 Leave Link  716 at Tue Sep 10 12:45:31 2024, MaxMem=   104857600 cpu:               0.0 elap:               0.0
 (Enter /usr/local/g16/l103.exe)

 GradGradGradGradGradGradGradGradGradGradGradGradGradGradGradGradGradGrad
 Berny optimization.
 Red2BG is reusing G-inverse.
 Internal  Forces:  Max     0.000000099 RMS     0.000000053
 Search for a local minimum.
 Step number   1 out of a maximum of    2
 All quantities printed in internal units (Hartrees-Bohrs-Radians)
 Second derivative matrix not updated -- analytic derivatives used.
 The second derivative matrix:
                          R1        R2        R3        R4        A1
           R1           0.36971
           R2           0.00297   0.36971
           R3           0.00297   0.00297   0.36971
           R4           0.00297   0.00297   0.00297   0.36971
           A1           0.00207   0.00207  -0.00130  -0.00284   0.02210
           A2           0.00325  -0.00084   0.00361  -0.00602  -0.00968
           A3           0.00634  -0.00509  -0.00564   0.00438  -0.01460
           A4          -0.00084   0.00325   0.00361  -0.00602  -0.00968
           A5          -0.00509   0.00634  -0.00564   0.00438  -0.01460
           A6          -0.00573  -0.00573   0.00535   0.00612   0.02646
           D1          -0.00401  -0.00401  -0.00283   0.01085  -0.01521
           D2           0.00330   0.00330  -0.00849   0.00189   0.00919
           D3          -0.00435   0.00765  -0.00425   0.00094   0.00459
           D4          -0.00765   0.00435   0.00425  -0.00094  -0.00459
                          A2        A3        A4        A5        A6
           A2           0.04180
           A3          -0.02533   0.08165
           A4          -0.00209   0.02734   0.04180
           A5           0.02734  -0.03937  -0.02533   0.08165
           A6          -0.03204  -0.02969  -0.03204  -0.02969   0.09701
           D1          -0.01246   0.01664  -0.01246   0.01664   0.00684
           D2          -0.01062   0.00801  -0.01062   0.00801  -0.00396
           D3          -0.01606  -0.00080   0.00544   0.00881  -0.00198
           D4          -0.00544  -0.00881   0.01606   0.00080   0.00198
                          D1        D2        D3        D4
           D1           0.03389
           D2           0.00175   0.02106
           D3           0.00088   0.01053   0.02137
           D4          -0.00088  -0.01053   0.01084   0.02137
 ITU=  0
     Eigenvalues ---    0.04316   0.04867   0.07409   0.14701   0.14744
     Eigenvalues ---    0.36774   0.36775   0.36805   0.37862
 Angle between quadratic step and forces=  90.00 degrees.
 Linear search not attempted -- first point.
 Iteration  1 RMS(Cart)=  0.00000014 RMS(Int)=  0.00000000
 ITry= 1 IFail=0 DXMaxC= 2.61D-07 DCOld= 1.00D+10 DXMaxT= 3.00D-01 DXLimC= 3.00D+00 Rises=F
 ClnCor:  largest displacement from symmetrization is 2.53D-14 for atom     4.
 Variable       Old X    -DE/DX   Delta X   Delta X   Delta X     New X
                                 (Linear)    (Quad)   (Total)
    R1        2.04893   0.00000   0.00000   0.00000   0.00000   2.04893
    R2        2.04893   0.00000   0.00000   0.00000   0.00000   2.04893
    R3        2.04893   0.00000   0.00000   0.00000   0.00000   2.04893
    R4        2.04893   0.00000   0.00000   0.00000   0.00000   2.04893
    A1        1.91063  -0.00000   0.00000  -0.00000   0.00000   1.91063
    A2        1.91063   0.00000   0.00000   0.00000   0.00000   1.91063
    A3        1.91063  -0.00000   0.00000   0.00000   0.00000   1.91063
    A4        1.91063  -0.00000   0.00000  -0.00000  -0.00000   1.91063
    A5        1.91063   0.00000   0.00000   0.00000  -0.00000   1.91063
    A6        1.91063   0.00000   0.00000  -0.00000   0.00000   1.91063
    D1       -2.09440   0.00000   0.00000   0.00000   0.00000  -2.09440
    D2        2.09440  -0.00000   0.00000   0.00000  -0.00000   2.09440
    D3       -2.09440  -0.00000   0.00000  -0.00000  -0.00000  -2.09440
    D4        2.09440  -0.00000   0.00000  -0.00000  -0.00000   2.09440
         Item               Value     Threshold  Converged?
 Maximum Force            0.000000     0.000450     YES
 RMS     Force            0.000000     0.000300     YES
 Maximum Displacement     0.000000     0.001800     YES
 RMS     Displacement     0.000000     0.001200     YES
 Predicted change in Energy=-5.177112D-14
 Optimization completed.
    -- Stationary point found.
                           ----------------------------
                           !   Optimized Parameters   !
                           ! (Angstroms and Degrees)  !
 --------------------------                            --------------------------
 ! Name  Definition              Value          Derivative Info.                !
 --------------------------------------------------------------------------------
 ! R1    R(1,2)                  1.0842         -DE/DX =    0.0                 !
 ! R2    R(1,3)                  1.0842         -DE/DX =    0.0                 !
 ! R3    R(1,4)                  1.0842         -DE/DX =    0.0                 !
 ! R4    R(1,5)                  1.0842         -DE/DX =    0.0                 !
 ! A1    A(2,1,3)              109.4712         -DE/DX =    0.0                 !
 ! A2    A(2,1,4)              109.4712         -DE/DX =    0.0                 !
 ! A3    A(2,1,5)              109.4712         -DE/DX =    0.0                 !
 ! A4    A(3,1,4)              109.4712         -DE/DX =    0.0                 !
 ! A5    A(3,1,5)              109.4712         -DE/DX =    0.0                 !
 ! A6    A(4,1,5)              109.4712         -DE/DX =    0.0                 !
 ! D1    D(2,1,4,3)           -120.0            -DE/DX =    0.0                 !
 ! D2    D(2,1,5,3)            120.0            -DE/DX =    0.0                 !
 ! D3    D(2,1,5,4)           -120.0            -DE/DX =    0.0                 !
 ! D4    D(3,1,5,4)            120.0            -DE/DX =    0.0                 !
 --------------------------------------------------------------------------------
 GradGradGradGradGradGradGradGradGradGradGradGradGradGradGradGradGradGrad

 Leave Link  103 at Tue Sep 10 12:45:31 2024, MaxMem=   104857600 cpu:               0.0 elap:               0.0
 (Enter /usr/local/g16/l9999.exe)
 Dipole is zero, so no output in dipole orientation.

 ----------------------------------------------------------------------

 Electric dipole moment (input orientation):
 (Debye = 10**-18 statcoulomb cm , SI units = C m)
                  (au)            (Debye)         (10**-30 SI)
   Tot        0.000000D+00      0.000000D+00      0.000000D+00
   x          0.000000D+00      0.000000D+00      0.000000D+00
   y          0.000000D+00      0.000000D+00      0.000000D+00
   z          0.000000D+00      0.000000D+00      0.000000D+00

 Dipole polarizability, Alpha (input orientation).
 (esu units = cm**3 , SI units = C**2 m**2 J**-1)
 Alpha(0;0):
               (au)            (10**-24 esu)      (10**-40 SI)
   iso        0.131950D+02      0.195529D+01      0.217556D+01
   aniso      0.000000D+00      0.000000D+00      0.000000D+00
   xx         0.131950D+02      0.195529D+01      0.217556D+01
   yx         0.000000D+00      0.000000D+00      0.000000D+00
   yy         0.131950D+02      0.195529D+01      0.217556D+01
   zx         0.000000D+00      0.000000D+00      0.000000D+00
   zy         0.000000D+00      0.000000D+00      0.000000D+00
   zz         0.131950D+02      0.195529D+01      0.217556D+01

 First dipole hyperpolarizability, Beta (input orientation).
 ||, _|_  parallel and perpendicular components, (z) with respect to z axis,
 vector components x,y,z.  Values do not include the 1/n! factor of 1/2.
 (esu units = statvolt**-1 cm**4 , SI units = C**3 m**3 J**-2)
 Beta(0;0,0):
               (au)            (10**-30 esu)      (10**-50 SI)
   || (z)     0.000000D+00      0.000000D+00      0.000000D+00
   _|_(z)     0.000000D+00      0.000000D+00      0.000000D+00
   x          0.000000D+00      0.000000D+00      0.000000D+00
   y          0.000000D+00      0.000000D+00      0.000000D+00
   z          0.000000D+00      0.000000D+00      0.000000D+00
   ||         0.000000D+00      0.000000D+00      0.000000D+00
   xxx       -0.323897D+02     -0.279822D+00     -0.103853D+00
   xxy        0.784836D-03      0.678037D-05      0.251647D-05
   yxy        0.161946D+02      0.139908D+00      0.519256D-01
   yyy       -0.229036D+02     -0.197869D+00     -0.734371D-01
   xxz        0.546617D-04      0.472234D-06      0.175265D-06
   yxz        0.193243D-04      0.166947D-06      0.619608D-07
   yyz       -0.546617D-04     -0.472234D-06     -0.175265D-06
   zxz        0.161951D+02      0.139913D+00      0.519274D-01
   zyz        0.229028D+02      0.197862D+00      0.734345D-01
   zzz        0.000000D+00      0.000000D+00      0.000000D+00

 ----------------------------------------------------------------------
 1\1\GINC-SV1-C724\Freq\RHF\6-311G(d,p)\C1H4\LME\10-Sep-2024\0\\#P Geom
 =AllCheck Guess=TCheck SCRF=Check GenChk RHF/6-311G(d,p) Freq\\Title C
 ard Required\\0,1\C,-0.67099567,0.685425635,0.\H,-0.3095929392,-0.3368
 150606,-0.0000009149\H,-0.3095736147,1.1965388864,0.8852826191\H,-0.30
 95751087,1.1965399429,-0.8852826191\H,-1.7552410174,0.6854387713,0.000
 0009149\\Version=ES64L-G16RevA.03\State=1-A1\HF=-40.2090117\RMSD=3.059
 e-10\RMSF=5.112e-08\ZeroPoint=0.0469482\Thermal=0.0498035\Dipole=0.,0.
 ,0.\DipoleDeriv=0.0717179,0.,0.,0.,0.0717179,0.,0.,0.,0.0717179,0.0375
 015,0.0783863,0.,0.0783863,-0.1565042,-0.0000002,0.,-0.0000002,0.06521
 42,0.0374986,-0.0391947,-0.0678879,-0.0391947,0.0097861,-0.0960052,-0.
 0678878,-0.0960051,-0.1010732,0.0374988,-0.0391946,0.0678876,-0.039194
 6,0.0097859,0.0960054,0.0678876,0.0960053,-0.1010732,-0.1842169,0.0000
 03,0.0000002,0.000003,0.0652142,0.,0.0000002,0.,0.0652142\Polar=13.194
 9742,0.,13.1949742,0.,0.,13.1949742\PolarDeriv=6.5705362,-0.0001591,-3
 .2852117,-0.0000111,-0.0000039,-3.2853243,-0.0001596,-3.2852118,4.6461
 897,-0.0000039,0.0000111,-4.6460312,-0.0000111,-0.0000039,0.0000111,-3
 .2853244,-4.6460307,0.,0.9960804,-2.371691,1.7829922,-0.0000009,0.0000
 015,0.5923913,-1.036286,2.255111,-8.4147245,0.0000015,-0.000006,-0.085
 296,0.0000003,0.0000015,-0.0000048,1.0645101,-1.4207012,-0.000004,0.99
 61895,1.1858787,0.890051,2.0539917,0.5155694,1.4854032,0.5181853,1.362
 1951,2.149283,0.5155694,2.41852,2.1006185,0.8975019,0.5155694,1.262030
 2,1.9575472,2.7683117,6.0991165,0.996181,1.1858794,0.8900501,-2.053986
 2,-0.5155674,1.4853986,0.5181847,1.3621922,2.1492903,-0.5155674,-2.418
 5255,2.1006218,-0.8974963,-0.5155674,-1.2620357,1.9575407,2.7683164,-6
 .0991165,-9.5589869,0.0000922,-0.2778817,0.0000064,0.0000004,-0.277868
 8,0.000075,-1.6942866,-0.5300387,0.0000004,0.0000005,0.5300866,0.00000
 52,0.0000004,-0.0000007,-1.6942738,0.5301037,0.000004\HyperPolar=-32.3
 896813,0.0007848,16.1945631,-22.9035519,0.0000547,0.0000193,-0.0000547
 ,16.1951181,22.9027671,0.\Quadrupole=0.,0.,0.,0.,0.,0.\PG=TD [O(C1),4C
 3(H1)]\NImag=0\\0.59932589,0.,0.59932589,0.,0.,0.59932589,-0.08616938,
 0.09002602,0.00000008,0.08708600,0.09002602,-0.30898345,-0.00000023,-0
 .09991936,0.33438607,0.00000008,-0.00000023,-0.05434161,-0.00000009,0.
 00000025,0.05176054,-0.08617279,-0.04501479,-0.07796865,0.00435820,0.0
 0507429,0.01213772,0.08708978,-0.04501479,-0.11800029,-0.11026115,-0.0
 1304939,-0.01420174,-0.02876937,0.04996166,0.12241496,-0.07796865,-0.1
 1026114,-0.24532135,0.00167437,0.00082655,0.00193082,0.08653696,0.1223
 7822,0.26372787,-0.08617252,-0.04501469,0.07796833,0.00435818,0.005074
 30,-0.01213772,0.00435848,0.00797470,-0.01046390,0.08708949,-0.0450146
 9,-0.11800056,0.11026137,-0.01304934,-0.01420177,0.02876938,0.00797466
 ,0.00999699,-0.01479777,0.04996156,0.12241525,0.07796832,0.11026137,-0
 .24532135,-0.00167439,-0.00082657,0.00193087,0.01046386,0.01479779,-0.
 02226820,-0.08653661,-0.12237847,0.26372787,-0.34081122,0.00000348,0.0
 0000024,-0.00963300,-0.00025526,0.,-0.00963368,0.00012781,0.00022122,-
 0.00963362,0.00012781,-0.00022120,0.36971154,0.00000347,-0.05434161,0.
 ,0.03599207,0.00300089,-0.00000003,-0.01799582,-0.00020992,0.00185415,
 -0.01799586,-0.00020991,-0.00185412,-0.00000385,0.05176054,0.00000024,
 0.,-0.05434161,0.00000003,0.,-0.00128062,-0.03116989,0.00185451,0.0019
 3087,0.03116989,-0.00185452,0.00193082,-0.00000027,0.,0.05176054\\0.,0
 .,0.,-0.00000003,0.00000009,0.,-0.00000003,-0.00000005,-0.00000008,-0.
 00000003,-0.00000005,0.00000008,0.00000010,0.,0.\\\@


 If your ship doesn't come in, swim out to it!
                          -- Jonathan Winters
 Job cpu time:       0 days  0 hours  0 minutes  1.7 seconds.
 Elapsed time:       0 days  0 hours  0 minutes  1.6 seconds.
 File lengths (MBytes):  RWF=      6 Int=      0 D2E=      0 Chk=      1 Scr=      1
 Normal termination of Gaussian 16 at Tue Sep 10 12:45:31 2024.
