 Entering Gaussian System, Link 0=g16
 Input=/home/lme/Theoretische_Chemie/Nomodeco/Gaussian_Imp_Rechnungen/methan/methan.gjf
 Output=/home/lme/Theoretische_Chemie/Nomodeco/Gaussian_Imp_Rechnungen/methan/methan.log
 Initial command:
 /usr/local/g16/l1.exe "/scratch/lme/Gau-829764.inp" -scrdir="/scratch/lme/"
 Entering Link 1 = /usr/local/g16/l1.exe PID=    829767.
  
 Copyright (c) 1988,1990,1992,1993,1995,1998,2003,2009,2016,
            Gaussian, Inc.  All Rights Reserved.
  
 This is part of the Gaussian(R) 16 program.  It is based on
 the Gaussian(R) 09 system (copyright 2009, Gaussian, Inc.),
 the Gaussian(R) 03 system (copyright 2003, Gaussian, Inc.),
 the Gaussian(R) 98 system (copyright 1998, Gaussian, Inc.),
 the Gaussian(R) 94 system (copyright 1995, Gaussian, Inc.),
 the Gaussian 92(TM) system (copyright 1992, Gaussian, Inc.),
 the Gaussian 90(TM) system (copyright 1990, Gaussian, Inc.),
 the Gaussian 88(TM) system (copyright 1988, Gaussian, Inc.),
 the Gaussian 86(TM) system (copyright 1986, Carnegie Mellon
 University), and the Gaussian 82(TM) system (copyright 1983,
 Carnegie Mellon University). Gaussian is a federally registered
 trademark of Gaussian, Inc.
  
 This software contains proprietary and confidential information,
 including trade secrets, belonging to Gaussian, Inc.
  
 This software is provided under written license and may be
 used, copied, transmitted, or stored only in accord with that
 written license.
  
 The following legend is applicable only to US Government
 contracts under FAR:
  
                    RESTRICTED RIGHTS LEGEND
  
 Use, reproduction and disclosure by the US Government is
 subject to restrictions as set forth in subparagraphs (a)
 and (c) of the Commercial Computer Software - Restricted
 Rights clause in FAR 52.227-19.
  
 Gaussian, Inc.
 340 Quinnipiac St., Bldg. 40, Wallingford CT 06492
  
  
 ---------------------------------------------------------------
 Warning -- This program may not be used in any manner that
 competes with the business of Gaussian, Inc. or will provide
 assistance to any competitor of Gaussian, Inc.  The licensee
 of this program is prohibited from giving any competitor of
 Gaussian, Inc. access to this program.  By using this program,
 the user acknowledges that Gaussian, Inc. is engaged in the
 business of creating and licensing software in the field of
 computational chemistry and represents and warrants to the
 licensee that it is not a competitor of Gaussian, Inc. and that
 it will not use this program in any manner prohibited above.
 ---------------------------------------------------------------
  

 Cite this work as:
 Gaussian 16, Revision A.03,
 M. J. Frisch, G. W. Trucks, H. B. Schlegel, G. E. Scuseria, 
 M. A. Robb, J. R. Cheeseman, G. Scalmani, V. Barone, 
 G. A. Petersson, H. Nakatsuji, X. Li, M. Caricato, A. V. Marenich, 
 J. Bloino, B. G. Janesko, R. Gomperts, B. Mennucci, H. P. Hratchian, 
 J. V. Ortiz, A. F. Izmaylov, J. L. Sonnenberg, D. Williams-Young, 
 F. Ding, F. Lipparini, F. Egidi, J. Goings, B. Peng, A. Petrone, 
 T. Henderson, D. Ranasinghe, V. G. Zakrzewski, J. Gao, N. Rega, 
 G. Zheng, W. Liang, M. Hada, M. Ehara, K. Toyota, R. Fukuda, 
 J. Hasegawa, M. Ishida, T. Nakajima, Y. Honda, O. Kitao, H. Nakai, 
 T. Vreven, K. Throssell, J. A. Montgomery, Jr., J. E. Peralta, 
 F. Ogliaro, M. J. Bearpark, J. J. Heyd, E. N. Brothers, K. N. Kudin, 
 V. N. Staroverov, T. A. Keith, R. Kobayashi, J. Normand, 
 K. Raghavachari, A. P. Rendell, J. C. Burant, S. S. Iyengar, 
 J. Tomasi, M. Cossi, J. M. Millam, M. Klene, C. Adamo, R. Cammi, 
 J. W. Ochterski, R. L. Martin, K. Morokuma, O. Farkas, 
 J. B. Foresman, and D. J. Fox, Gaussian, Inc., Wallingford CT, 2016.
 
 ******************************************
 Gaussian 16:  ES64L-G16RevA.03 25-Dec-2016
                 9-Sep-2024 
 ******************************************
 %chk=methan.chk
 -------------------------------------------
 # opt freq hf/6-311g(d,p) geom=connectivity
 -------------------------------------------
 1/18=20,19=15,38=1,57=2/1,3;
 2/9=110,12=2,17=6,18=5,40=1/2;
 3/5=4,6=6,7=101,11=9,25=1,30=1,71=1/1,2,3;
 4//1;
 5/5=2,38=5/2;
 6/7=2,8=2,9=2,10=2,28=1/1;
 7//1,2,3,16;
 1/18=20,19=15/3(2);
 2/9=110/2;
 99//99;
 2/9=110/2;
 3/5=4,6=6,7=101,11=9,25=1,30=1,71=1/1,2,3;
 4/5=5,16=3,69=1/1;
 5/5=2,38=5/2;
 7//1,2,3,16;
 1/18=20,19=15/3(-5);
 2/9=110/2;
 6/7=2,8=2,9=2,10=2,19=2,28=1/1;
 99/9=1/99;
 -------------------
 Title Card Required
 -------------------
 Symbolic Z-matrix:
 Charge =  0 Multiplicity = 1
 C                    -0.671     0.68543   0. 
 H                    -0.31434  -0.32338   0. 
 H                    -0.31432   1.18982   0.87365 
 H                    -0.31432   1.18982  -0.87365 
 H                    -1.741     0.68544   0. 
 

 GradGradGradGradGradGradGradGradGradGradGradGradGradGradGradGradGradGrad
 Berny optimization.
 Initialization pass.
                           ----------------------------
                           !    Initial Parameters    !
                           ! (Angstroms and Degrees)  !
 --------------------------                            --------------------------
 ! Name  Definition              Value          Derivative Info.                !
 --------------------------------------------------------------------------------
 ! R1    R(1,2)                  1.07           estimate D2E/DX2                !
 ! R2    R(1,3)                  1.07           estimate D2E/DX2                !
 ! R3    R(1,4)                  1.07           estimate D2E/DX2                !
 ! R4    R(1,5)                  1.07           estimate D2E/DX2                !
 ! A1    A(2,1,3)              109.4712         estimate D2E/DX2                !
 ! A2    A(2,1,4)              109.4712         estimate D2E/DX2                !
 ! A3    A(2,1,5)              109.4712         estimate D2E/DX2                !
 ! A4    A(3,1,4)              109.4713         estimate D2E/DX2                !
 ! A5    A(3,1,5)              109.4712         estimate D2E/DX2                !
 ! A6    A(4,1,5)              109.4712         estimate D2E/DX2                !
 ! D1    D(2,1,4,3)           -120.0            estimate D2E/DX2                !
 ! D2    D(2,1,5,3)            120.0            estimate D2E/DX2                !
 ! D3    D(2,1,5,4)           -120.0            estimate D2E/DX2                !
 ! D4    D(3,1,5,4)            120.0            estimate D2E/DX2                !
 --------------------------------------------------------------------------------
 Trust Radius=3.00D-01 FncErr=1.00D-07 GrdErr=1.00D-07 EigMax=2.50D+02 EigMin=1.00D-04
 Number of steps in this run=     24 maximum allowed number of steps=    100.
 GradGradGradGradGradGradGradGradGradGradGradGradGradGradGradGradGradGrad

                          Input orientation:                          
 ---------------------------------------------------------------------
 Center     Atomic      Atomic             Coordinates (Angstroms)
 Number     Number       Type             X           Y           Z
 ---------------------------------------------------------------------
      1          6           0       -0.670996    0.685426    0.000000
      2          1           0       -0.314341   -0.323384    0.000000
      3          1           0       -0.314323    1.189824    0.873652
      4          1           0       -0.314323    1.189824   -0.873652
      5          1           0       -1.740996    0.685439    0.000000
 ---------------------------------------------------------------------
                    Distance matrix (angstroms):
                    1          2          3          4          5
     1  C    0.000000
     2  H    1.070000   0.000000
     3  H    1.070000   1.747302   0.000000
     4  H    1.070000   1.747302   1.747303   0.000000
     5  H    1.070000   1.747303   1.747303   1.747303   0.000000
 Stoichiometry    CH4
 Framework group  T[O(C),4C3(H)]
 Deg. of freedom     1
 Full point group                 T       NOp  12
 Largest Abelian subgroup         D2      NOp   4
 Largest concise Abelian subgroup D2      NOp   4
                         Standard orientation:                         
 ---------------------------------------------------------------------
 Center     Atomic      Atomic             Coordinates (Angstroms)
 Number     Number       Type             X           Y           Z
 ---------------------------------------------------------------------
      1          6           0        0.000000   -0.000000    0.000000
      2          1           0        0.617765    0.617765    0.617765
      3          1           0       -0.617765   -0.617765    0.617765
      4          1           0       -0.617765    0.617765   -0.617765
      5          1           0        0.617765   -0.617765   -0.617765
 ---------------------------------------------------------------------
 Rotational constants (GHZ):         164.2463782         164.2463782         164.2463782
 Standard basis: 6-311G(d,p) (5D, 7F)
 There are    13 symmetry adapted cartesian basis functions of A   symmetry.
 There are    10 symmetry adapted cartesian basis functions of B1  symmetry.
 There are    10 symmetry adapted cartesian basis functions of B2  symmetry.
 There are    10 symmetry adapted cartesian basis functions of B3  symmetry.
 There are    12 symmetry adapted basis functions of A   symmetry.
 There are    10 symmetry adapted basis functions of B1  symmetry.
 There are    10 symmetry adapted basis functions of B2  symmetry.
 There are    10 symmetry adapted basis functions of B3  symmetry.
    42 basis functions,    64 primitive gaussians,    43 cartesian basis functions
     5 alpha electrons        5 beta electrons
       nuclear repulsion energy        13.6865185418 Hartrees.
 NAtoms=    5 NActive=    5 NUniq=    2 SFac= 4.00D+00 NAtFMM=   60 NAOKFM=F Big=F
 Integral buffers will be    131072 words long.
 Raffenetti 1 integral format.
 Two-electron integral symmetry is turned on.
 One-electron integrals computed using PRISM.
 NBasis=    42 RedAO= T EigKep=  1.17D-02  NBF=    12    10    10    10
 NBsUse=    42 1.00D-06 EigRej= -1.00D+00 NBFU=    12    10    10    10
 ExpMin= 1.03D-01 ExpMax= 4.56D+03 ExpMxC= 6.82D+02 IAcc=3 IRadAn=         5 AccDes= 0.00D+00
 Harris functional with IExCor=  205 and IRadAn=       5 diagonalized for initial guess.
 HarFok:  IExCor=  205 AccDes= 0.00D+00 IRadAn=         5 IDoV= 1 UseB2=F ITyADJ=14
 ICtDFT=  3500011 ScaDFX=  1.000000  1.000000  1.000000  1.000000
 FoFCou: FMM=F IPFlag=           0 FMFlag=      100000 FMFlg1=           0
         NFxFlg=           0 DoJE=T BraDBF=F KetDBF=T FulRan=T
         wScrn=  0.000000 ICntrl=       500 IOpCl=  0 I1Cent=   200000004 NGrid=           0
         NMat0=    1 NMatS0=      1 NMatT0=    0 NMatD0=    1 NMtDS0=    0 NMtDT0=    0
 Petite list used in FoFCou.
 Initial guess orbital symmetries:
       Occupied  (A) (A) (T) (T) (T)
       Virtual   (A) (T) (T) (T) (T) (T) (T) (A) (T) (T) (T) (A)
                 (E) (E) (T) (T) (T) (T) (T) (T) (T) (T) (T) (A)
                 (E) (E) (T) (T) (T) (T) (T) (T) (A) (T) (T) (T)
                 (A)
 The electronic state of the initial guess is 1-A.
 Keep R1 ints in memory in symmetry-blocked form, NReq=1248840.
 Requested convergence on RMS density matrix=1.00D-08 within 128 cycles.
 Requested convergence on MAX density matrix=1.00D-06.
 Requested convergence on             energy=1.00D-06.
 No special actions if energy rises.
 SCF Done:  E(RHF) =  -40.2084489180     A.U. after    8 cycles
            NFock=  8  Conv=0.61D-08     -V/T= 1.9985

 **********************************************************************

            Population analysis using the SCF density.

 **********************************************************************

 Orbital symmetries:
       Occupied  (A) (A) (T) (T) (T)
       Virtual   (A) (T) (T) (T) (T) (T) (T) (A) (T) (T) (T) (A)
                 (E) (E) (T) (T) (T) (T) (T) (T) (T) (T) (T) (A)
                 (E) (E) (T) (T) (T) (T) (T) (T) (A) (T) (T) (T)
                 (A)
 The electronic state is 1-A.
 Alpha  occ. eigenvalues --  -11.19789  -0.95101  -0.54977  -0.54977  -0.54977
 Alpha virt. eigenvalues --    0.16359   0.23854   0.23854   0.23854   0.42918
 Alpha virt. eigenvalues --    0.42918   0.42918   0.77433   0.82115   0.82115
 Alpha virt. eigenvalues --    0.82115   0.93365   1.20395   1.20395   1.72174
 Alpha virt. eigenvalues --    1.72174   1.72174   1.74007   1.74007   1.74007
 Alpha virt. eigenvalues --    2.19462   2.19462   2.19462   2.55487   2.65392
 Alpha virt. eigenvalues --    2.65392   2.69640   2.69640   2.69640   2.94308
 Alpha virt. eigenvalues --    2.94308   2.94308   3.19638   4.23976   4.23976
 Alpha virt. eigenvalues --    4.23976  25.22231
          Condensed to atoms (all electrons):
               1          2          3          4          5
     1  C    4.699620   0.413705   0.413705   0.413705   0.413705
     2  H    0.413705   0.571716  -0.024677  -0.024677  -0.024677
     3  H    0.413705  -0.024677   0.571716  -0.024677  -0.024677
     4  H    0.413705  -0.024677  -0.024677   0.571716  -0.024677
     5  H    0.413705  -0.024677  -0.024677  -0.024677   0.571716
 Mulliken charges:
               1
     1  C   -0.354442
     2  H    0.088610
     3  H    0.088610
     4  H    0.088610
     5  H    0.088610
 Sum of Mulliken charges =  -0.00000
 Mulliken charges with hydrogens summed into heavy atoms:
               1
     1  C   -0.000000
 Electronic spatial extent (au):  <R**2>=             34.9916
 Charge=             -0.0000 electrons
 Dipole moment (field-independent basis, Debye):
    X=              0.0000    Y=              0.0000    Z=              0.0000  Tot=              0.0000
 Quadrupole moment (field-independent basis, Debye-Ang):
   XX=             -8.3561   YY=             -8.3561   ZZ=             -8.3561
   XY=              0.0000   XZ=              0.0000   YZ=              0.0000
 Traceless Quadrupole moment (field-independent basis, Debye-Ang):
   XX=              0.0000   YY=              0.0000   ZZ=             -0.0000
   XY=              0.0000   XZ=              0.0000   YZ=              0.0000
 Octapole moment (field-independent basis, Debye-Ang**2):
  XXX=              0.0000  YYY=             -0.0000  ZZZ=              0.0000  XYY=              0.0000
  XXY=             -0.0000  XXZ=              0.0000  XZZ=              0.0000  YZZ=              0.0000
  YYZ=              0.0000  XYZ=              0.6438
 Hexadecapole moment (field-independent basis, Debye-Ang**3):
 XXXX=            -15.9559 YYYY=            -15.9559 ZZZZ=            -15.9559 XXXY=             -0.0000
 XXXZ=              0.0000 YYYX=             -0.0000 YYYZ=              0.0000 ZZZX=              0.0000
 ZZZY=             -0.0000 XXYY=             -4.8423 XXZZ=             -4.8423 YYZZ=             -4.8423
 XXYZ=              0.0000 YYXZ=              0.0000 ZZXY=              0.0000
 N-N= 1.368651854178D+01 E-N=-1.204640983649D+02  KE= 4.027059476694D+01
 Symmetry A    KE= 3.448604486921D+01
 Symmetry B1   KE= 1.928183299241D+00
 Symmetry B2   KE= 1.928183299241D+00
 Symmetry B3   KE= 1.928183299241D+00
 Calling FoFJK, ICntrl=      2127 FMM=F ISym2X=1 I1Cent= 0 IOpClX= 0 NMat=1 NMatS=1 NMatT=0.
 ***** Axes restored to original set *****
 -------------------------------------------------------------------
 Center     Atomic                   Forces (Hartrees/Bohr)
 Number     Number              X              Y              Z
 -------------------------------------------------------------------
      1        6           0.000000000   -0.000000000    0.000000000
      2        1           0.003528283   -0.009979877   -0.000000009
      3        1           0.003528472    0.004989869    0.008642790
      4        1           0.003528458    0.004989880   -0.008642790
      5        1          -0.010585213    0.000000128    0.000000009
 -------------------------------------------------------------------
 Cartesian Forces:  Max     0.010585213 RMS     0.005466181

 GradGradGradGradGradGradGradGradGradGradGradGradGradGradGradGradGradGrad
 Berny optimization.
 FormGI is forming the generalized inverse of G from B-inverse, IUseBI=4.
 Internal  Forces:  Max     0.010585213 RMS     0.005658034
 Search for a local minimum.
 Step number   1 out of a maximum of   24
 All quantities printed in internal units (Hartrees-Bohrs-Radians)
 Mixed Optimization -- RFO/linear search
 Second derivative matrix not updated -- first step.
 The second derivative matrix:
                          R1        R2        R3        R4        A1
           R1           0.37230
           R2           0.00000   0.37230
           R3           0.00000   0.00000   0.37230
           R4           0.00000   0.00000   0.00000   0.37230
           A1           0.00000   0.00000   0.00000   0.00000   0.16000
           A2           0.00000   0.00000   0.00000   0.00000   0.00000
           A3           0.00000   0.00000   0.00000   0.00000   0.00000
           A4           0.00000   0.00000   0.00000   0.00000   0.00000
           A5           0.00000   0.00000   0.00000   0.00000   0.00000
           A6           0.00000   0.00000   0.00000   0.00000   0.00000
           D1           0.00000   0.00000   0.00000   0.00000   0.00000
           D2           0.00000   0.00000   0.00000   0.00000   0.00000
           D3           0.00000   0.00000   0.00000   0.00000   0.00000
           D4           0.00000   0.00000   0.00000   0.00000   0.00000
                          A2        A3        A4        A5        A6
           A2           0.16000
           A3           0.00000   0.16000
           A4           0.00000   0.00000   0.16000
           A5           0.00000   0.00000   0.00000   0.16000
           A6           0.00000   0.00000   0.00000   0.00000   0.16000
           D1           0.00000   0.00000   0.00000   0.00000   0.00000
           D2           0.00000   0.00000   0.00000   0.00000   0.00000
           D3           0.00000   0.00000   0.00000   0.00000   0.00000
           D4           0.00000   0.00000   0.00000   0.00000   0.00000
                          D1        D2        D3        D4
           D1           0.00499
           D2           0.00000   0.00499
           D3           0.00000   0.00000   0.00499
           D4           0.00000   0.00000   0.00000   0.00499
 ITU=  0
     Eigenvalues ---    0.05269   0.05891   0.08766   0.16000   0.16000
     Eigenvalues ---    0.37230   0.37230   0.37230   0.37230
 RFO step:  Lambda=-1.19996168D-03 EMin= 5.26881006D-02
 Linear search not attempted -- first point.
 Iteration  1 RMS(Cart)=  0.01514864 RMS(Int)=  0.00000000
 Iteration  2 RMS(Cart)=  0.00000000 RMS(Int)=  0.00000000
 ClnCor:  largest displacement from symmetrization is 1.58D-14 for atom     3.
 Variable       Old X    -DE/DX   Delta X   Delta X   Delta X     New X
                                 (Linear)    (Quad)   (Total)
    R1        2.02201   0.01059   0.00000   0.02834   0.02834   2.05035
    R2        2.02201   0.01059   0.00000   0.02834   0.02834   2.05035
    R3        2.02201   0.01059   0.00000   0.02834   0.02834   2.05035
    R4        2.02201   0.01059   0.00000   0.02834   0.02834   2.05035
    A1        1.91063   0.00000   0.00000   0.00000  -0.00000   1.91063
    A2        1.91063  -0.00000   0.00000  -0.00000   0.00000   1.91063
    A3        1.91063   0.00000   0.00000   0.00000   0.00000   1.91063
    A4        1.91063   0.00000   0.00000   0.00000   0.00000   1.91063
    A5        1.91063  -0.00000   0.00000  -0.00000   0.00000   1.91063
    A6        1.91063  -0.00000   0.00000  -0.00000   0.00000   1.91063
    D1       -2.09440  -0.00000   0.00000  -0.00000   0.00000  -2.09440
    D2        2.09440  -0.00000   0.00000  -0.00000  -0.00000   2.09440
    D3       -2.09440  -0.00000   0.00000  -0.00000   0.00000  -2.09440
    D4        2.09440   0.00000   0.00000   0.00000   0.00000   2.09440
         Item               Value     Threshold  Converged?
 Maximum Force            0.010585     0.000450     NO 
 RMS     Force            0.005658     0.000300     NO 
 Maximum Displacement     0.028341     0.001800     NO 
 RMS     Displacement     0.015149     0.001200     NO 
 Predicted change in Energy=-6.019084D-04
 GradGradGradGradGradGradGradGradGradGradGradGradGradGradGradGradGradGrad

                          Input orientation:                          
 ---------------------------------------------------------------------
 Center     Atomic      Atomic             Coordinates (Angstroms)
 Number     Number       Type             X           Y           Z
 ---------------------------------------------------------------------
      1          6           0       -0.670996    0.685426   -0.000000
      2          1           0       -0.309342   -0.337524   -0.000001
      3          1           0       -0.309323    1.196893    0.885896
      4          1           0       -0.309325    1.196894   -0.885896
      5          1           0       -1.755993    0.685439    0.000001
 ---------------------------------------------------------------------
                    Distance matrix (angstroms):
                    1          2          3          4          5
     1  C    0.000000
     2  H    1.084997   0.000000
     3  H    1.084997   1.771793   0.000000
     4  H    1.084997   1.771793   1.771793   0.000000
     5  H    1.084997   1.771793   1.771793   1.771793   0.000000
 Stoichiometry    CH4
 Framework group  TD[O(C),4C3(H)]
 Deg. of freedom     1
 Full point group                 TD      NOp  24
 Omega: Change in point group or standard orientation.

 Old FWG=T    [O(C1),4C3(H1)]
 New FWG=TD   [O(C1),4C3(H1)]
 Largest Abelian subgroup         D2      NOp   4
 Largest concise Abelian subgroup D2      NOp   4
                         Standard orientation:                         
 ---------------------------------------------------------------------
 Center     Atomic      Atomic             Coordinates (Angstroms)
 Number     Number       Type             X           Y           Z
 ---------------------------------------------------------------------
      1          6           0        0.000000    0.000000    0.000000
      2          1           0        0.626423    0.626423    0.626423
      3          1           0       -0.626423   -0.626423    0.626423
      4          1           0       -0.626423    0.626423   -0.626423
      5          1           0        0.626423   -0.626423   -0.626423
 ---------------------------------------------------------------------
 Rotational constants (GHZ):         159.7372330         159.7372330         159.7372330
 Standard basis: 6-311G(d,p) (5D, 7F)
 There are    13 symmetry adapted cartesian basis functions of A   symmetry.
 There are    10 symmetry adapted cartesian basis functions of B1  symmetry.
 There are    10 symmetry adapted cartesian basis functions of B2  symmetry.
 There are    10 symmetry adapted cartesian basis functions of B3  symmetry.
 There are    12 symmetry adapted basis functions of A   symmetry.
 There are    10 symmetry adapted basis functions of B1  symmetry.
 There are    10 symmetry adapted basis functions of B2  symmetry.
 There are    10 symmetry adapted basis functions of B3  symmetry.
    42 basis functions,    64 primitive gaussians,    43 cartesian basis functions
     5 alpha electrons        5 beta electrons
       nuclear repulsion energy        13.4973393754 Hartrees.
 NAtoms=    5 NActive=    5 NUniq=    2 SFac= 4.00D+00 NAtFMM=   60 NAOKFM=F Big=F
 Integral buffers will be    131072 words long.
 Raffenetti 1 integral format.
 Two-electron integral symmetry is turned on.
 One-electron integrals computed using PRISM.
 NBasis=    42 RedAO= T EigKep=  1.25D-02  NBF=    12    10    10    10
 NBsUse=    42 1.00D-06 EigRej= -1.00D+00 NBFU=    12    10    10    10
 Initial guess from the checkpoint file:  "methan.chk"
 B after Tr=    -0.000000    0.000000   -0.000000
         Rot=    1.000000   -0.000000   -0.000000    0.000000 Ang=   0.00 deg.
 Initial guess orbital symmetries:
       Occupied  (A1) (A1) (T2) (T2) (T2)
       Virtual   (A1) (T2) (T2) (T2) (T2) (T2) (T2) (A1) (T2) (T2)
                 (T2) (A1) (E) (E) (T2) (T2) (T2) (T1) (T1) (T1)
                 (T2) (T2) (T2) (A1) (E) (E) (T2) (T2) (T2) (T2)
                 (T2) (T2) (A1) (T2) (T2) (T2) (A1)
 ExpMin= 1.03D-01 ExpMax= 4.56D+03 ExpMxC= 6.82D+02 IAcc=2 IRadAn=         4 AccDes= 0.00D+00
 Harris functional with IExCor=  205 and IRadAn=       4 diagonalized for initial guess.
 HarFok:  IExCor=  205 AccDes= 0.00D+00 IRadAn=         4 IDoV= 1 UseB2=F ITyADJ=14
 ICtDFT=  3500011 ScaDFX=  1.000000  1.000000  1.000000  1.000000
 FoFCou: FMM=F IPFlag=           0 FMFlag=      100000 FMFlg1=           0
         NFxFlg=           0 DoJE=T BraDBF=F KetDBF=T FulRan=T
         wScrn=  0.000000 ICntrl=       500 IOpCl=  0 I1Cent=   200000004 NGrid=           0
         NMat0=    1 NMatS0=      1 NMatT0=    0 NMatD0=    1 NMtDS0=    0 NMtDT0=    0
 Petite list used in FoFCou.
 Keep R1 ints in memory in symmetry-blocked form, NReq=1249092.
 Requested convergence on RMS density matrix=1.00D-08 within 128 cycles.
 Requested convergence on MAX density matrix=1.00D-06.
 Requested convergence on             energy=1.00D-06.
 No special actions if energy rises.
 SCF Done:  E(RHF) =  -40.2090101762     A.U. after    7 cycles
            NFock=  7  Conv=0.89D-08     -V/T= 2.0006
 Calling FoFJK, ICntrl=      2127 FMM=F ISym2X=1 I1Cent= 0 IOpClX= 0 NMat=1 NMatS=1 NMatT=0.
 ***** Axes restored to original set *****
 -------------------------------------------------------------------
 Center     Atomic                   Forces (Hartrees/Bohr)
 Number     Number              X              Y              Z
 -------------------------------------------------------------------
      1        6           0.000000000    0.000000000   -0.000000000
      2        1          -0.000178900    0.000506024    0.000000000
      3        1          -0.000178909   -0.000253009   -0.000438228
      4        1          -0.000178909   -0.000253009    0.000438228
      5        1           0.000536718   -0.000000007   -0.000000000
 -------------------------------------------------------------------
 Cartesian Forces:  Max     0.000536718 RMS     0.000277160

 GradGradGradGradGradGradGradGradGradGradGradGradGradGradGradGradGradGrad
 Berny optimization.
 Using GEDIIS/GDIIS optimizer.
 FormGI is forming the generalized inverse of G from B-inverse, IUseBI=4.
 Internal  Forces:  Max     0.000536718 RMS     0.000286888
 Search for a local minimum.
 Step number   2 out of a maximum of   24
 All quantities printed in internal units (Hartrees-Bohrs-Radians)
 Mixed Optimization -- En-DIIS/RFO-DIIS
 Update second derivatives using D2CorX and points    1    2
 DE= -5.61D-04 DEPred=-6.02D-04 R= 9.32D-01
 TightC=F SS=  1.41D+00  RLast= 5.67D-02 DXNew= 5.0454D-01 1.7004D-01
 Trust test= 9.32D-01 RLast= 5.67D-02 DXMaxT set to 3.00D-01
 The second derivative matrix:
                          R1        R2        R3        R4        A1
           R1           0.37734
           R2           0.00503   0.37734
           R3           0.00503   0.00503   0.37734
           R4           0.00503   0.00503   0.00503   0.37734
           A1           0.00000   0.00000   0.00000   0.00000   0.16000
           A2          -0.00000  -0.00000  -0.00000  -0.00000  -0.00000
           A3           0.00000   0.00000   0.00000   0.00000   0.00000
           A4          -0.00000  -0.00000  -0.00000  -0.00000  -0.00000
           A5          -0.00000  -0.00000  -0.00000  -0.00000  -0.00000
           A6           0.00000   0.00000   0.00000   0.00000   0.00000
           D1          -0.00000  -0.00000  -0.00000  -0.00000  -0.00000
           D2           0.00000   0.00000   0.00000   0.00000   0.00000
           D3          -0.00000  -0.00000  -0.00000  -0.00000  -0.00000
           D4          -0.00000  -0.00000  -0.00000  -0.00000  -0.00000
                          A2        A3        A4        A5        A6
           A2           0.16000
           A3          -0.00000   0.16000
           A4           0.00000  -0.00000   0.16000
           A5           0.00000  -0.00000   0.00000   0.16000
           A6          -0.00000   0.00000  -0.00000  -0.00000   0.16000
           D1           0.00000  -0.00000   0.00000   0.00000  -0.00000
           D2          -0.00000   0.00000  -0.00000  -0.00000   0.00000
           D3           0.00000  -0.00000   0.00000   0.00000  -0.00000
           D4           0.00000  -0.00000   0.00000   0.00000  -0.00000
                          D1        D2        D3        D4
           D1           0.00499
           D2          -0.00000   0.00499
           D3           0.00000  -0.00000   0.00499
           D4           0.00000  -0.00000   0.00000   0.00499
 ITU=  1  0
 Use linear search instead of GDIIS.
     Eigenvalues ---    0.05269   0.05891   0.08766   0.16000   0.16000
     Eigenvalues ---    0.37230   0.37230   0.37230   0.39244
 RFO step:  Lambda= 0.00000000D+00 EMin= 5.26881006D-02
 Quartic linear search produced a step of -0.05013.
 Iteration  1 RMS(Cart)=  0.00075936 RMS(Int)=  0.00000000
 Iteration  2 RMS(Cart)=  0.00000000 RMS(Int)=  0.00000000
 ClnCor:  largest displacement from symmetrization is 1.38D-14 for atom     4.
 Variable       Old X    -DE/DX   Delta X   Delta X   Delta X     New X
                                 (Linear)    (Quad)   (Total)
    R1        2.05035  -0.00054  -0.00142   0.00000  -0.00142   2.04893
    R2        2.05035  -0.00054  -0.00142   0.00000  -0.00142   2.04893
    R3        2.05035  -0.00054  -0.00142  -0.00000  -0.00142   2.04893
    R4        2.05035  -0.00054  -0.00142  -0.00000  -0.00142   2.04893
    A1        1.91063  -0.00000  -0.00000  -0.00000   0.00000   1.91063
    A2        1.91063  -0.00000   0.00000  -0.00000   0.00000   1.91063
    A3        1.91063   0.00000   0.00000   0.00000   0.00000   1.91063
    A4        1.91063   0.00000   0.00000   0.00000  -0.00000   1.91063
    A5        1.91063  -0.00000   0.00000  -0.00000  -0.00000   1.91063
    A6        1.91063  -0.00000  -0.00000  -0.00000   0.00000   1.91063
    D1       -2.09440  -0.00000   0.00000  -0.00000   0.00000  -2.09440
    D2        2.09440  -0.00000  -0.00000  -0.00000   0.00000   2.09440
    D3       -2.09440   0.00000   0.00000   0.00000  -0.00000  -2.09440
    D4        2.09440   0.00000   0.00000   0.00000  -0.00000   2.09440
         Item               Value     Threshold  Converged?
 Maximum Force            0.000537     0.000450     NO 
 RMS     Force            0.000287     0.000300     YES
 Maximum Displacement     0.001421     0.001800     YES
 RMS     Displacement     0.000759     0.001200     YES
 Predicted change in Energy=-1.465875D-06
 GradGradGradGradGradGradGradGradGradGradGradGradGradGradGradGradGradGrad

                          Input orientation:                          
 ---------------------------------------------------------------------
 Center     Atomic      Atomic             Coordinates (Angstroms)
 Number     Number       Type             X           Y           Z
 ---------------------------------------------------------------------
      1          6           0       -0.670996    0.685426    0.000000
      2          1           0       -0.309593   -0.336815   -0.000001
      3          1           0       -0.309574    1.196539    0.885283
      4          1           0       -0.309575    1.196540   -0.885283
      5          1           0       -1.755241    0.685439    0.000001
 ---------------------------------------------------------------------
                    Distance matrix (angstroms):
                    1          2          3          4          5
     1  C    0.000000
     2  H    1.084245   0.000000
     3  H    1.084245   1.770565   0.000000
     4  H    1.084245   1.770565   1.770565   0.000000
     5  H    1.084245   1.770565   1.770565   1.770565   0.000000
 Stoichiometry    CH4
 Framework group  TD[O(C),4C3(H)]
 Deg. of freedom     1
 Full point group                 TD      NOp  24
 Largest Abelian subgroup         D2      NOp   4
 Largest concise Abelian subgroup D2      NOp   4
                         Standard orientation:                         
 ---------------------------------------------------------------------
 Center     Atomic      Atomic             Coordinates (Angstroms)
 Number     Number       Type             X           Y           Z
 ---------------------------------------------------------------------
      1          6           0        0.000000    0.000000    0.000000
      2          1           0        0.625989    0.625989    0.625989
      3          1           0       -0.625989   -0.625989    0.625989
      4          1           0       -0.625989    0.625989   -0.625989
      5          1           0        0.625989   -0.625989   -0.625989
 ---------------------------------------------------------------------
 Rotational constants (GHZ):         159.9588192         159.9588192         159.9588192
 Standard basis: 6-311G(d,p) (5D, 7F)
 There are    13 symmetry adapted cartesian basis functions of A   symmetry.
 There are    10 symmetry adapted cartesian basis functions of B1  symmetry.
 There are    10 symmetry adapted cartesian basis functions of B2  symmetry.
 There are    10 symmetry adapted cartesian basis functions of B3  symmetry.
 There are    12 symmetry adapted basis functions of A   symmetry.
 There are    10 symmetry adapted basis functions of B1  symmetry.
 There are    10 symmetry adapted basis functions of B2  symmetry.
 There are    10 symmetry adapted basis functions of B3  symmetry.
    42 basis functions,    64 primitive gaussians,    43 cartesian basis functions
     5 alpha electrons        5 beta electrons
       nuclear repulsion energy        13.5066978347 Hartrees.
 NAtoms=    5 NActive=    5 NUniq=    2 SFac= 4.00D+00 NAtFMM=   60 NAOKFM=F Big=F
 Integral buffers will be    131072 words long.
 Raffenetti 1 integral format.
 Two-electron integral symmetry is turned on.
 One-electron integrals computed using PRISM.
 NBasis=    42 RedAO= T EigKep=  1.25D-02  NBF=    12    10    10    10
 NBsUse=    42 1.00D-06 EigRej= -1.00D+00 NBFU=    12    10    10    10
 Initial guess from the checkpoint file:  "methan.chk"
 B after Tr=     0.000000   -0.000000   -0.000000
         Rot=    1.000000   -0.000000    0.000000    0.000000 Ang=   0.00 deg.
 Initial guess orbital symmetries:
       Occupied  (A1) (A1) (T2) (T2) (T2)
       Virtual   (A1) (T2) (T2) (T2) (T2) (T2) (T2) (A1) (T2) (T2)
                 (T2) (A1) (E) (E) (T2) (T2) (T2) (T1) (T1) (T1)
                 (T2) (T2) (T2) (A1) (E) (E) (T2) (T2) (T2) (T2)
                 (T2) (T2) (A1) (T2) (T2) (T2) (A1)
 Keep R1 ints in memory in symmetry-blocked form, NReq=1249092.
 Requested convergence on RMS density matrix=1.00D-08 within 128 cycles.
 Requested convergence on MAX density matrix=1.00D-06.
 Requested convergence on             energy=1.00D-06.
 No special actions if energy rises.
 SCF Done:  E(RHF) =  -40.2090117019     A.U. after    6 cycles
            NFock=  6  Conv=0.35D-08     -V/T= 2.0005
 Calling FoFJK, ICntrl=      2127 FMM=F ISym2X=1 I1Cent= 0 IOpClX= 0 NMat=1 NMatS=1 NMatT=0.
 ***** Axes restored to original set *****
 -------------------------------------------------------------------
 Center     Atomic                   Forces (Hartrees/Bohr)
 Number     Number              X              Y              Z
 -------------------------------------------------------------------
      1        6           0.000000000   -0.000000000    0.000000000
      2        1           0.000000033   -0.000000093   -0.000000000
      3        1           0.000000033    0.000000047    0.000000081
      4        1           0.000000033    0.000000047   -0.000000081
      5        1          -0.000000099    0.000000000    0.000000000
 -------------------------------------------------------------------
 Cartesian Forces:  Max     0.000000099 RMS     0.000000051

 GradGradGradGradGradGradGradGradGradGradGradGradGradGradGradGradGradGrad
 Berny optimization.
 Using GEDIIS/GDIIS optimizer.
 FormGI is forming the generalized inverse of G from B-inverse, IUseBI=4.
 Internal  Forces:  Max     0.000000099 RMS     0.000000053
 Search for a local minimum.
 Step number   3 out of a maximum of   24
 All quantities printed in internal units (Hartrees-Bohrs-Radians)
 Mixed Optimization -- En-DIIS/RFO-DIIS
 Swapping is turned off.
 Update second derivatives using D2CorX and points    1    2    3
 DE= -1.53D-06 DEPred=-1.47D-06 R= 1.04D+00
 TightC=F SS=  1.41D+00  RLast= 2.84D-03 DXNew= 5.0454D-01 8.5238D-03
 Trust test= 1.04D+00 RLast= 2.84D-03 DXMaxT set to 3.00D-01
 The second derivative matrix:
                          R1        R2        R3        R4        A1
           R1           0.37369
           R2           0.00139   0.37369
           R3           0.00139   0.00139   0.37369
           R4           0.00139   0.00139   0.00139   0.37369
           A1           0.00000   0.00000   0.00000   0.00000   0.16000
           A2           0.00000   0.00000   0.00000   0.00000   0.00000
           A3          -0.00000  -0.00000  -0.00000  -0.00000  -0.00000
           A4          -0.00000  -0.00000  -0.00000  -0.00000  -0.00000
           A5           0.00000   0.00000   0.00000   0.00000   0.00000
           A6          -0.00000  -0.00000  -0.00000  -0.00000  -0.00000
           D1          -0.00000  -0.00000  -0.00000  -0.00000  -0.00000
           D2           0.00000   0.00000   0.00000   0.00000   0.00000
           D3          -0.00000  -0.00000  -0.00000  -0.00000  -0.00000
           D4          -0.00000  -0.00000  -0.00000  -0.00000  -0.00000
                          A2        A3        A4        A5        A6
           A2           0.16000
           A3          -0.00000   0.16000
           A4          -0.00000   0.00000   0.16000
           A5           0.00000  -0.00000  -0.00000   0.16000
           A6          -0.00000   0.00000   0.00000  -0.00000   0.16000
           D1          -0.00000   0.00000   0.00000  -0.00000   0.00000
           D2           0.00000  -0.00000  -0.00000   0.00000  -0.00000
           D3          -0.00000   0.00000   0.00000  -0.00000   0.00000
           D4          -0.00000   0.00000   0.00000  -0.00000   0.00000
                          D1        D2        D3        D4
           D1           0.00499
           D2          -0.00000   0.00499
           D3           0.00000  -0.00000   0.00499
           D4           0.00000  -0.00000   0.00000   0.00499
 ITU=  1  1  0
     Eigenvalues ---    0.05269   0.05891   0.08766   0.16000   0.16000
     Eigenvalues ---    0.37230   0.37230   0.37230   0.37787
 En-DIIS/RFO-DIIS/Sim-DIIS IScMMF=       -3 using points:     3    2
 RFO step:  Lambda= 0.00000000D+00.
 DidBck=F Rises=F RFO-DIIS coefs:    0.99982    0.00018
 Iteration  1 RMS(Cart)=  0.00000014 RMS(Int)=  0.00000000
 ClnCor:  largest displacement from symmetrization is 2.34D-14 for atom     5.
 Variable       Old X    -DE/DX   Delta X   Delta X   Delta X     New X
                                 (Linear)    (Quad)   (Total)
    R1        2.04893   0.00000   0.00000   0.00000   0.00000   2.04893
    R2        2.04893   0.00000   0.00000   0.00000   0.00000   2.04893
    R3        2.04893   0.00000   0.00000   0.00000   0.00000   2.04893
    R4        2.04893   0.00000   0.00000  -0.00000   0.00000   2.04893
    A1        1.91063  -0.00000   0.00000   0.00000   0.00000   1.91063
    A2        1.91063   0.00000   0.00000   0.00000   0.00000   1.91063
    A3        1.91063  -0.00000   0.00000  -0.00000  -0.00000   1.91063
    A4        1.91063  -0.00000   0.00000  -0.00000  -0.00000   1.91063
    A5        1.91063   0.00000   0.00000   0.00000   0.00000   1.91063
    A6        1.91063  -0.00000   0.00000  -0.00000   0.00000   1.91063
    D1       -2.09440  -0.00000   0.00000  -0.00000  -0.00000  -2.09440
    D2        2.09440  -0.00000   0.00000   0.00000   0.00000   2.09440
    D3       -2.09440  -0.00000   0.00000  -0.00000   0.00000  -2.09440
    D4        2.09440  -0.00000   0.00000  -0.00000  -0.00000   2.09440
         Item               Value     Threshold  Converged?
 Maximum Force            0.000000     0.000450     YES
 RMS     Force            0.000000     0.000300     YES
 Maximum Displacement     0.000000     0.001800     YES
 RMS     Displacement     0.000000     0.001200     YES
 Predicted change in Energy=-5.157185D-14
 Optimization completed.
    -- Stationary point found.
                           ----------------------------
                           !   Optimized Parameters   !
                           ! (Angstroms and Degrees)  !
 --------------------------                            --------------------------
 ! Name  Definition              Value          Derivative Info.                !
 --------------------------------------------------------------------------------
 ! R1    R(1,2)                  1.0842         -DE/DX =    0.0                 !
 ! R2    R(1,3)                  1.0842         -DE/DX =    0.0                 !
 ! R3    R(1,4)                  1.0842         -DE/DX =    0.0                 !
 ! R4    R(1,5)                  1.0842         -DE/DX =    0.0                 !
 ! A1    A(2,1,3)              109.4712         -DE/DX =    0.0                 !
 ! A2    A(2,1,4)              109.4712         -DE/DX =    0.0                 !
 ! A3    A(2,1,5)              109.4712         -DE/DX =    0.0                 !
 ! A4    A(3,1,4)              109.4712         -DE/DX =    0.0                 !
 ! A5    A(3,1,5)              109.4712         -DE/DX =    0.0                 !
 ! A6    A(4,1,5)              109.4712         -DE/DX =    0.0                 !
 ! D1    D(2,1,4,3)           -120.0            -DE/DX =    0.0                 !
 ! D2    D(2,1,5,3)            120.0            -DE/DX =    0.0                 !
 ! D3    D(2,1,5,4)           -120.0            -DE/DX =    0.0                 !
 ! D4    D(3,1,5,4)            120.0            -DE/DX =    0.0                 !
 --------------------------------------------------------------------------------
 GradGradGradGradGradGradGradGradGradGradGradGradGradGradGradGradGradGrad

                          Input orientation:                          
 ---------------------------------------------------------------------
 Center     Atomic      Atomic             Coordinates (Angstroms)
 Number     Number       Type             X           Y           Z
 ---------------------------------------------------------------------
      1          6           0       -0.670996    0.685426    0.000000
      2          1           0       -0.309593   -0.336815   -0.000001
      3          1           0       -0.309574    1.196539    0.885283
      4          1           0       -0.309575    1.196540   -0.885283
      5          1           0       -1.755241    0.685439    0.000001
 ---------------------------------------------------------------------
                    Distance matrix (angstroms):
                    1          2          3          4          5
     1  C    0.000000
     2  H    1.084245   0.000000
     3  H    1.084245   1.770565   0.000000
     4  H    1.084245   1.770565   1.770565   0.000000
     5  H    1.084245   1.770565   1.770565   1.770565   0.000000
 Stoichiometry    CH4
 Framework group  TD[O(C),4C3(H)]
 Deg. of freedom     1
 Full point group                 TD      NOp  24
 Largest Abelian subgroup         D2      NOp   4
 Largest concise Abelian subgroup D2      NOp   4
                         Standard orientation:                         
 ---------------------------------------------------------------------
 Center     Atomic      Atomic             Coordinates (Angstroms)
 Number     Number       Type             X           Y           Z
 ---------------------------------------------------------------------
      1          6           0        0.000000    0.000000    0.000000
      2          1           0        0.625989    0.625989    0.625989
      3          1           0       -0.625989   -0.625989    0.625989
      4          1           0       -0.625989    0.625989   -0.625989
      5          1           0        0.625989   -0.625989   -0.625989
 ---------------------------------------------------------------------
 Rotational constants (GHZ):         159.9588192         159.9588192         159.9588192

 **********************************************************************

            Population analysis using the SCF density.

 **********************************************************************

 Orbital symmetries:
       Occupied  (A1) (A1) (T2) (T2) (T2)
       Virtual   (A1) (T2) (T2) (T2) (T2) (T2) (T2) (A1) (T2) (T2)
                 (T2) (A1) (E) (E) (T2) (T2) (T2) (T1) (T1) (T1)
                 (T2) (T2) (T2) (A1) (E) (E) (T2) (T2) (T2) (T2)
                 (T2) (T2) (A1) (T2) (T2) (T2) (A1)
 The electronic state is 1-A1.
 Alpha  occ. eigenvalues --  -11.20500  -0.94502  -0.54609  -0.54609  -0.54609
 Alpha virt. eigenvalues --    0.16226   0.23748   0.23748   0.23748   0.42768
 Alpha virt. eigenvalues --    0.42768   0.42768   0.75906   0.81458   0.81458
 Alpha virt. eigenvalues --    0.81458   0.93539   1.20256   1.20256   1.72132
 Alpha virt. eigenvalues --    1.72132   1.72132   1.72815   1.72815   1.72815
 Alpha virt. eigenvalues --    2.18452   2.18452   2.18452   2.53089   2.63048
 Alpha virt. eigenvalues --    2.63048   2.70062   2.70062   2.70062   2.91275
 Alpha virt. eigenvalues --    2.91275   2.91275   3.19063   4.20521   4.20521
 Alpha virt. eigenvalues --    4.20521  25.17599
          Condensed to atoms (all electrons):
               1          2          3          4          5
     1  C    4.714425   0.411295   0.411295   0.411295   0.411295
     2  H    0.411295   0.572732  -0.024643  -0.024643  -0.024643
     3  H    0.411295  -0.024643   0.572732  -0.024643  -0.024643
     4  H    0.411295  -0.024643  -0.024643   0.572732  -0.024643
     5  H    0.411295  -0.024643  -0.024643  -0.024643   0.572732
 Mulliken charges:
               1
     1  C   -0.359605
     2  H    0.089901
     3  H    0.089901
     4  H    0.089901
     5  H    0.089901
 Sum of Mulliken charges =  -0.00000
 Mulliken charges with hydrogens summed into heavy atoms:
               1
     1  C   -0.000000
 Electronic spatial extent (au):  <R**2>=             35.5340
 Charge=              0.0000 electrons
 Dipole moment (field-independent basis, Debye):
    X=              0.0000    Y=              0.0000    Z=              0.0000  Tot=              0.0000
 Quadrupole moment (field-independent basis, Debye-Ang):
   XX=             -8.4027   YY=             -8.4027   ZZ=             -8.4027
   XY=              0.0000   XZ=              0.0000   YZ=              0.0000
 Traceless Quadrupole moment (field-independent basis, Debye-Ang):
   XX=              0.0000   YY=             -0.0000   ZZ=              0.0000
   XY=              0.0000   XZ=              0.0000   YZ=              0.0000
 Octapole moment (field-independent basis, Debye-Ang**2):
  XXX=              0.0000  YYY=              0.0000  ZZZ=              0.0000  XYY=              0.0000
  XXY=              0.0000  XXZ=              0.0000  XZZ=              0.0000  YZZ=              0.0000
  YYZ=              0.0000  XYZ=              0.6811
 Hexadecapole moment (field-independent basis, Debye-Ang**3):
 XXXX=            -16.3295 YYYY=            -16.3295 ZZZZ=            -16.3295 XXXY=              0.0000
 XXXZ=              0.0000 YYYX=              0.0000 YYYZ=              0.0000 ZZZX=              0.0000
 ZZZY=              0.0000 XXYY=             -4.9400 XXZZ=             -4.9400 YYZZ=             -4.9400
 XXYZ=              0.0000 YYXZ=              0.0000 ZZXY=              0.0000
 N-N= 1.350669783473D+01 E-N=-1.200421892736D+02  KE= 4.018733437231D+01
 Symmetry A    KE= 3.447139608931D+01
 Symmetry B1   KE= 1.905312760999D+00
 Symmetry B2   KE= 1.905312760999D+00
 Symmetry B3   KE= 1.905312760999D+00
 1\1\GINC-SV1-C724\FOpt\RHF\6-311G(d,p)\C1H4\LME\09-Sep-2024\0\\# opt f
 req hf/6-311g(d,p) geom=connectivity\\Title Card Required\\0,1\C,-0.67
 099567,0.685425635,0.\H,-0.3095929392,-0.3368150606,-0.0000009149\H,-0
 .3095736147,1.1965388864,0.8852826191\H,-0.3095751087,1.1965399429,-0.
 8852826191\H,-1.7552410174,0.6854387713,0.0000009149\\Version=ES64L-G1
 6RevA.03\State=1-A1\HF=-40.2090117\RMSD=3.545e-09\RMSF=5.097e-08\Dipol
 e=0.,0.,0.\Quadrupole=0.,0.,0.,0.,0.,0.\PG=TD [O(C1),4C3(H1)]\\@


 IN SO FAR AS QUANTUM MECHANICS IS CORRECT, CHEMICAL 
 QUESTIONS ARE PROBLEMS IN APPLIED MATHEMATICS.

                    -- EYRING, WALTER, & KIMBALL, 1944
 Job cpu time:       0 days  0 hours  0 minutes  2.2 seconds.
 Elapsed time:       0 days  0 hours  0 minutes  2.1 seconds.
 File lengths (MBytes):  RWF=      6 Int=      0 D2E=      0 Chk=      1 Scr=      1
 Normal termination of Gaussian 16 at Mon Sep  9 14:15:06 2024.
 Link1:  Proceeding to internal job step number  2.
 --------------------------------------------------------------------
 #N Geom=AllCheck Guess=TCheck SCRF=Check GenChk RHF/6-311G(d,p) Freq
 --------------------------------------------------------------------
 1/10=4,29=7,30=1,38=1,40=1/1,3;
 2/12=2,40=1/2;
 3/5=4,6=6,7=101,11=1,14=-4,25=1,30=1,70=2,71=2,116=1,140=1/1,2,3;
 4/5=101/1;
 5/5=2,38=6,98=1/2;
 8/6=4,10=90,11=11/1;
 10/13=10,15=4/2;
 11/6=3,8=1,9=11,15=111,16=1/1,2,10;
 10/6=1/2;
 6/7=2,8=2,9=2,10=2,28=1/1;
 7/8=1,10=1,25=1/1,2,3,16;
 1/10=4,30=1/3;
 99//99;
 Structure from the checkpoint file:  "methan.chk"
 -------------------
 Title Card Required
 -------------------
 Charge =  0 Multiplicity = 1
 Redundant internal coordinates found in file.  (old form).
 C,0,-0.67099567,0.685425635,0.
 H,0,-0.3095929392,-0.3368150606,-0.0000009149
 H,0,-0.3095736147,1.1965388864,0.8852826191
 H,0,-0.3095751087,1.1965399429,-0.8852826191
 H,0,-1.7552410174,0.6854387713,0.0000009149
 Recover connectivity data from disk.

 GradGradGradGradGradGradGradGradGradGradGradGradGradGradGradGradGradGrad
 Berny optimization.
 Initialization pass.
                           ----------------------------
                           !    Initial Parameters    !
                           ! (Angstroms and Degrees)  !
 --------------------------                            --------------------------
 ! Name  Definition              Value          Derivative Info.                !
 --------------------------------------------------------------------------------
 ! R1    R(1,2)                  1.0842         calculate D2E/DX2 analytically  !
 ! R2    R(1,3)                  1.0842         calculate D2E/DX2 analytically  !
 ! R3    R(1,4)                  1.0842         calculate D2E/DX2 analytically  !
 ! R4    R(1,5)                  1.0842         calculate D2E/DX2 analytically  !
 ! A1    A(2,1,3)              109.4712         calculate D2E/DX2 analytically  !
 ! A2    A(2,1,4)              109.4712         calculate D2E/DX2 analytically  !
 ! A3    A(2,1,5)              109.4712         calculate D2E/DX2 analytically  !
 ! A4    A(3,1,4)              109.4712         calculate D2E/DX2 analytically  !
 ! A5    A(3,1,5)              109.4712         calculate D2E/DX2 analytically  !
 ! A6    A(4,1,5)              109.4712         calculate D2E/DX2 analytically  !
 ! D1    D(2,1,4,3)           -120.0            calculate D2E/DX2 analytically  !
 ! D2    D(2,1,5,3)            120.0            calculate D2E/DX2 analytically  !
 ! D3    D(2,1,5,4)           -120.0            calculate D2E/DX2 analytically  !
 ! D4    D(3,1,5,4)            120.0            calculate D2E/DX2 analytically  !
 --------------------------------------------------------------------------------
 Trust Radius=3.00D-01 FncErr=1.00D-07 GrdErr=1.00D-07 EigMax=2.50D+02 EigMin=1.00D-04
 Number of steps in this run=      2 maximum allowed number of steps=      2.
 GradGradGradGradGradGradGradGradGradGradGradGradGradGradGradGradGradGrad

                          Input orientation:                          
 ---------------------------------------------------------------------
 Center     Atomic      Atomic             Coordinates (Angstroms)
 Number     Number       Type             X           Y           Z
 ---------------------------------------------------------------------
      1          6           0       -0.670996    0.685426    0.000000
      2          1           0       -0.309593   -0.336815   -0.000001
      3          1           0       -0.309574    1.196539    0.885283
      4          1           0       -0.309575    1.196540   -0.885283
      5          1           0       -1.755241    0.685439    0.000001
 ---------------------------------------------------------------------
                    Distance matrix (angstroms):
                    1          2          3          4          5
     1  C    0.000000
     2  H    1.084245   0.000000
     3  H    1.084245   1.770565   0.000000
     4  H    1.084245   1.770565   1.770565   0.000000
     5  H    1.084245   1.770565   1.770565   1.770565   0.000000
 Stoichiometry    CH4
 Framework group  TD[O(C),4C3(H)]
 Deg. of freedom     1
 Full point group                 TD      NOp  24
 Largest Abelian subgroup         D2      NOp   4
 Largest concise Abelian subgroup D2      NOp   4
                         Standard orientation:                         
 ---------------------------------------------------------------------
 Center     Atomic      Atomic             Coordinates (Angstroms)
 Number     Number       Type             X           Y           Z
 ---------------------------------------------------------------------
      1          6           0        0.000000    0.000000    0.000000
      2          1           0        0.625989    0.625989    0.625989
      3          1           0       -0.625989   -0.625989    0.625989
      4          1           0       -0.625989    0.625989   -0.625989
      5          1           0        0.625989   -0.625989   -0.625989
 ---------------------------------------------------------------------
 Rotational constants (GHZ):         159.9588192         159.9588192         159.9588192
 Standard basis: 6-311G(d,p) (5D, 7F)
 There are    13 symmetry adapted cartesian basis functions of A   symmetry.
 There are    10 symmetry adapted cartesian basis functions of B1  symmetry.
 There are    10 symmetry adapted cartesian basis functions of B2  symmetry.
 There are    10 symmetry adapted cartesian basis functions of B3  symmetry.
 There are    12 symmetry adapted basis functions of A   symmetry.
 There are    10 symmetry adapted basis functions of B1  symmetry.
 There are    10 symmetry adapted basis functions of B2  symmetry.
 There are    10 symmetry adapted basis functions of B3  symmetry.
    42 basis functions,    64 primitive gaussians,    43 cartesian basis functions
     5 alpha electrons        5 beta electrons
       nuclear repulsion energy        13.5066978347 Hartrees.
 NAtoms=    5 NActive=    5 NUniq=    2 SFac= 4.00D+00 NAtFMM=   60 NAOKFM=F Big=F
 Integral buffers will be    131072 words long.
 Raffenetti 1 integral format.
 Two-electron integral symmetry is turned on.
 One-electron integrals computed using PRISM.
 NBasis=    42 RedAO= T EigKep=  1.25D-02  NBF=    12    10    10    10
 NBsUse=    42 1.00D-06 EigRej= -1.00D+00 NBFU=    12    10    10    10
 Initial guess from the checkpoint file:  "methan.chk"
 B after Tr=     0.000000    0.000000    0.000000
         Rot=    1.000000   -0.000000    0.000000    0.000000 Ang=   0.00 deg.
 Initial guess orbital symmetries:
       Occupied  (A1) (A1) (T2) (T2) (T2)
       Virtual   (A1) (T2) (T2) (T2) (T2) (T2) (T2) (A1) (T2) (T2)
                 (T2) (A1) (E) (E) (T2) (T2) (T2) (T1) (T1) (T1)
                 (T2) (T2) (T2) (A1) (E) (E) (T2) (T2) (T2) (T2)
                 (T2) (T2) (A1) (T2) (T2) (T2) (A1)
 Keep R1 ints in memory in symmetry-blocked form, NReq=1249092.
 Requested convergence on RMS density matrix=1.00D-08 within 128 cycles.
 Requested convergence on MAX density matrix=1.00D-06.
 Requested convergence on             energy=1.00D-06.
 No special actions if energy rises.
 SCF Done:  E(RHF) =  -40.2090117019     A.U. after    1 cycles
            NFock=  1  Conv=0.31D-09     -V/T= 2.0005
 Range of M.O.s used for correlation:     1    42
 NBasis=    42 NAE=     5 NBE=     5 NFC=     0 NFV=     0
 NROrb=     42 NOA=     5 NOB=     5 NVA=    37 NVB=    37
          Differentiating once with respect to electric field.
                with respect to dipole field.
          Electric field/nuclear overlap derivatives assumed to be zero.
 Keep R1 ints in memory in symmetry-blocked form, NReq=1249802.
          There are     3 degrees of freedom in the 1st order CPHF.  IDoFFX=0 NUNeed=     3.
      3 vectors produced by pass  0 Test12= 6.17D-15 3.33D-08 XBig12= 2.83D+00 8.05D-01.
 AX will form     3 AO Fock derivatives at one time.
      3 vectors produced by pass  1 Test12= 6.17D-15 3.33D-08 XBig12= 9.69D-02 1.52D-01.
      3 vectors produced by pass  2 Test12= 6.17D-15 3.33D-08 XBig12= 9.18D-04 1.20D-02.
      3 vectors produced by pass  3 Test12= 6.17D-15 3.33D-08 XBig12= 6.81D-06 8.72D-04.
      3 vectors produced by pass  4 Test12= 6.17D-15 3.33D-08 XBig12= 4.46D-08 9.91D-05.
      3 vectors produced by pass  5 Test12= 6.17D-15 3.33D-08 XBig12= 4.80D-10 9.33D-06.
      3 vectors produced by pass  6 Test12= 6.17D-15 3.33D-08 XBig12= 1.98D-12 5.89D-07.
      3 vectors produced by pass  7 Test12= 6.17D-15 3.33D-08 XBig12= 1.20D-14 5.60D-08.
 InvSVY:  IOpt=1 It=  1 EMax= 2.22D-16
 Solved reduced A of dimension    24 with     3 vectors.
 End of Minotr F.D. properties file   721 does not exist.
 End of Minotr F.D. properties file   722 does not exist.
 End of Minotr F.D. properties file   788 does not exist.
 Symmetrizing basis deriv contribution to polar:
 IMax=3 JMax=2 DiffMx= 0.00D+00
 G2DrvN: will do     6 centers at a time, making    1 passes.
 PxScal for G2LodP:  IOpCl= 0 ISclPx=1 IMOff=     1 NMtTot=     4 NTT=     903 ScalPx= 1.00D+00
 Calling FoFCou, ICntrl=  3107 FMM=F I1Cent=   0 AccDes= 0.00D+00.
 End of G2Drv F.D. properties file   721 does not exist.
 End of G2Drv F.D. properties file   722 does not exist.
 End of G2Drv F.D. properties file   788 does not exist.
          IDoAtm=11111
          Differentiating once with respect to electric field.
                with respect to dipole field.
          Differentiating once with respect to nuclear coordinates.
 Keep R1 ints in memory in symmetry-blocked form, NReq=1249917.
          There are     9 degrees of freedom in the 1st order CPHF.  IDoFFX=4 NUNeed=     9.
 Will reuse    3 saved solutions.
      6 vectors produced by pass  0 Test12= 2.06D-15 1.11D-08 XBig12= 2.76D-02 5.77D-02.
 AX will form     6 AO Fock derivatives at one time.
      6 vectors produced by pass  1 Test12= 2.06D-15 1.11D-08 XBig12= 5.62D-04 8.64D-03.
      6 vectors produced by pass  2 Test12= 2.06D-15 1.11D-08 XBig12= 8.96D-06 1.47D-03.
      6 vectors produced by pass  3 Test12= 2.06D-15 1.11D-08 XBig12= 9.08D-08 8.22D-05.
      6 vectors produced by pass  4 Test12= 2.06D-15 1.11D-08 XBig12= 6.12D-10 9.20D-06.
      6 vectors produced by pass  5 Test12= 2.06D-15 1.11D-08 XBig12= 3.47D-12 7.12D-07.
      4 vectors produced by pass  6 Test12= 2.06D-15 1.11D-08 XBig12= 1.89D-14 4.61D-08.
 InvSVY:  IOpt=1 It=  1 EMax= 8.88D-16
 Solved reduced A of dimension    40 with     6 vectors.
 Isotropic polarizability for W=    0.000000       13.19 Bohr**3.
 End of Minotr F.D. properties file   721 does not exist.
 End of Minotr F.D. properties file   722 does not exist.
 End of Minotr F.D. properties file   788 does not exist.

 **********************************************************************

            Population analysis using the SCF density.

 **********************************************************************

 Orbital symmetries:
       Occupied  (A1) (A1) (T2) (T2) (T2)
       Virtual   (A1) (T2) (T2) (T2) (T2) (T2) (T2) (A1) (T2) (T2)
                 (T2) (A1) (E) (E) (T2) (T2) (T2) (T1) (T1) (T1)
                 (T2) (T2) (T2) (A1) (E) (E) (T2) (T2) (T2) (T2)
                 (T2) (T2) (A1) (T2) (T2) (T2) (A1)
 The electronic state is 1-A1.
 Alpha  occ. eigenvalues --  -11.20500  -0.94502  -0.54609  -0.54609  -0.54609
 Alpha virt. eigenvalues --    0.16226   0.23748   0.23748   0.23748   0.42768
 Alpha virt. eigenvalues --    0.42768   0.42768   0.75906   0.81458   0.81458
 Alpha virt. eigenvalues --    0.81458   0.93539   1.20256   1.20256   1.72132
 Alpha virt. eigenvalues --    1.72132   1.72132   1.72815   1.72815   1.72815
 Alpha virt. eigenvalues --    2.18452   2.18452   2.18452   2.53089   2.63048
 Alpha virt. eigenvalues --    2.63048   2.70062   2.70062   2.70062   2.91275
 Alpha virt. eigenvalues --    2.91275   2.91275   3.19063   4.20521   4.20521
 Alpha virt. eigenvalues --    4.20521  25.17599
          Condensed to atoms (all electrons):
               1          2          3          4          5
     1  C    4.714425   0.411295   0.411295   0.411295   0.411295
     2  H    0.411295   0.572732  -0.024643  -0.024643  -0.024643
     3  H    0.411295  -0.024643   0.572732  -0.024643  -0.024643
     4  H    0.411295  -0.024643  -0.024643   0.572732  -0.024643
     5  H    0.411295  -0.024643  -0.024643  -0.024643   0.572732
 Mulliken charges:
               1
     1  C   -0.359605
     2  H    0.089901
     3  H    0.089901
     4  H    0.089901
     5  H    0.089901
 Sum of Mulliken charges =  -0.00000
 Mulliken charges with hydrogens summed into heavy atoms:
               1
     1  C   -0.000000
 APT charges:
               1
     1  C    0.071718
     2  H   -0.017930
     3  H   -0.017930
     4  H   -0.017930
     5  H   -0.017930
 Sum of APT charges =  -0.00000
 APT charges with hydrogens summed into heavy atoms:
               1
     1  C   -0.000000
 Electronic spatial extent (au):  <R**2>=             35.5340
 Charge=             -0.0000 electrons
 Dipole moment (field-independent basis, Debye):
    X=              0.0000    Y=             -0.0000    Z=              0.0000  Tot=              0.0000
 Quadrupole moment (field-independent basis, Debye-Ang):
   XX=             -8.4027   YY=             -8.4027   ZZ=             -8.4027
   XY=              0.0000   XZ=             -0.0000   YZ=              0.0000
 Traceless Quadrupole moment (field-independent basis, Debye-Ang):
   XX=              0.0000   YY=              0.0000   ZZ=             -0.0000
   XY=              0.0000   XZ=             -0.0000   YZ=              0.0000
 Octapole moment (field-independent basis, Debye-Ang**2):
  XXX=             -0.0000  YYY=             -0.0000  ZZZ=              0.0000  XYY=              0.0000
  XXY=             -0.0000  XXZ=              0.0000  XZZ=              0.0000  YZZ=              0.0000
  YYZ=             -0.0000  XYZ=              0.6811
 Hexadecapole moment (field-independent basis, Debye-Ang**3):
 XXXX=            -16.3295 YYYY=            -16.3295 ZZZZ=            -16.3295 XXXY=             -0.0000
 XXXZ=             -0.0000 YYYX=             -0.0000 YYYZ=             -0.0000 ZZZX=             -0.0000
 ZZZY=             -0.0000 XXYY=             -4.9400 XXZZ=             -4.9400 YYZZ=             -4.9400
 XXYZ=              0.0000 YYXZ=             -0.0000 ZZXY=              0.0000
 N-N= 1.350669783473D+01 E-N=-1.200421892917D+02  KE= 4.018733438848D+01
 Symmetry A    KE= 3.447139610946D+01
 Symmetry B1   KE= 1.905312759674D+00
 Symmetry B2   KE= 1.905312759674D+00
 Symmetry B3   KE= 1.905312759674D+00
  Exact polarizability:  13.195   0.000  13.195  -0.000   0.000  13.195
 Approx polarizability:  10.742   0.000  10.742  -0.000   0.000  10.742
 Calling FoFJK, ICntrl=    100127 FMM=F ISym2X=1 I1Cent= 0 IOpClX= 0 NMat=1 NMatS=1 NMatT=0.
 Full mass-weighted force constant matrix:
 Low frequencies ---   -1.3795   -1.3663   -1.3658   -0.0006    0.0240    0.0472
 Low frequencies --- 1453.2274 1453.2274 1453.2275
 Diagonal vibrational polarizability:
        0.2599122       0.2599122       0.2599122
 Diagonal vibrational hyperpolarizability:
       -0.0000000      -0.0000000      -0.0000000
 Harmonic frequencies (cm**-1), IR intensities (KM/Mole), Raman scattering
 activities (A**4/AMU), depolarization ratios for plane and unpolarized
 incident light, reduced masses (AMU), force constants (mDyne/A),
 and normal coordinates:
                      1                      2                      3
                     T2                     T2                     T2
 Frequencies --   1453.2274              1453.2274              1453.2275
 Red. masses --      1.1789                 1.1789                 1.1789
 Frc consts  --      1.4669                 1.4669                 1.4669
 IR Inten    --     11.7364                11.7365                11.7365
 Raman Activ --      0.9831                 0.9831                 0.9831
 Depolar (P) --      0.7500                 0.7500                 0.7500
 Depolar (U) --      0.8571                 0.8571                 0.8571
  Atom  AN      X      Y      Z        X      Y      Z        X      Y      Z
     1   6    -0.00  -0.09  -0.09    -0.00   0.09  -0.09     0.12  -0.00  -0.00
     2   1    -0.32   0.09   0.09    -0.00  -0.43   0.43    -0.38   0.24   0.24
     3   1     0.01   0.42   0.43     0.33  -0.10   0.10    -0.37   0.25  -0.22
     4   1     0.01   0.43   0.42    -0.33  -0.10   0.10    -0.37  -0.22   0.25
     5   1     0.34   0.11   0.11     0.00  -0.43   0.43    -0.36  -0.23  -0.23
                      4                      5                      6
                      E                      E                     A1
 Frequencies --   1667.7591              1667.7591              3150.7574
 Red. masses --      1.0078                 1.0078                 1.0078
 Frc consts  --      1.6516                 1.6516                 5.8947
 IR Inten    --      0.0000                 0.0000                 0.0000
 Raman Activ --     18.6540                18.6540               159.2057
 Depolar (P) --      0.7500                 0.7500                 0.0000
 Depolar (U) --      0.8571                 0.8571                 0.0000
  Atom  AN      X      Y      Z        X      Y      Z        X      Y      Z
     1   6    -0.00   0.00   0.00    -0.00   0.00  -0.00     0.00   0.00   0.00
     2   1     0.41  -0.20  -0.20    -0.00  -0.35   0.35     0.29   0.29   0.29
     3   1    -0.41   0.20  -0.20     0.00   0.35   0.35    -0.29  -0.29   0.29
     4   1    -0.41  -0.20   0.20     0.00  -0.35  -0.35    -0.29   0.29  -0.29
     5   1     0.41   0.20   0.20    -0.00   0.35  -0.35     0.29  -0.29  -0.29
                      7                      8                      9
                     T2                     T2                     T2
 Frequencies --   3253.9768              3253.9769              3253.9769
 Red. masses --      1.1017                 1.1017                 1.1017
 Frc consts  --      6.8731                 6.8731                 6.8731
 IR Inten    --     43.4204                43.4204                43.4204
 Raman Activ --     67.3103                67.3103                67.3103
 Depolar (P) --      0.7500                 0.7500                 0.7500
 Depolar (U) --      0.8571                 0.8571                 0.8571
  Atom  AN      X      Y      Z        X      Y      Z        X      Y      Z
     1   6     0.09  -0.00  -0.00    -0.00   0.07  -0.07    -0.00  -0.07  -0.07
     2   1    -0.27  -0.29  -0.29     0.00   0.01  -0.01     0.42   0.40   0.40
     3   1    -0.28  -0.29   0.29    -0.41  -0.40   0.40     0.00  -0.01  -0.02
     4   1    -0.28   0.29  -0.29     0.41  -0.40   0.40     0.00  -0.02  -0.01
     5   1    -0.28   0.30   0.30     0.00   0.01  -0.01    -0.41   0.40   0.40

 -------------------
 - Thermochemistry -
 -------------------
 Temperature   298.150 Kelvin.  Pressure   1.00000 Atm.
 Atom     1 has atomic number  6 and mass  12.00000
 Atom     2 has atomic number  1 and mass   1.00783
 Atom     3 has atomic number  1 and mass   1.00783
 Atom     4 has atomic number  1 and mass   1.00783
 Atom     5 has atomic number  1 and mass   1.00783
 Molecular mass:    16.03130 amu.
 Principal axes and moments of inertia in atomic units:
                           1         2         3
     Eigenvalues --    11.28254  11.28254  11.28254
           X            0.17406  -0.08109   0.98139
           Y            0.97001  -0.15758  -0.18506
           Z            0.16965   0.98417   0.05123
 This molecule is a spherical top.
 Rotational symmetry number 12.
 Rotational temperatures (Kelvin)      7.67681     7.67681     7.67681
 Rotational constants (GHZ):         159.95882   159.95882   159.95882
 Zero-point vibrational energy     123262.5 (Joules/Mol)
                                   29.46046 (Kcal/Mol)
 Vibrational temperatures:   2090.87  2090.87  2090.87  2399.53  2399.53
          (Kelvin)           4533.24  4681.75  4681.75  4681.75
 
 Zero-point correction=                           0.046948 (Hartree/Particle)
 Thermal correction to Energy=                    0.049804
 Thermal correction to Enthalpy=                  0.050748
 Thermal correction to Gibbs Free Energy=         0.029650
 Sum of electronic and zero-point Energies=            -40.162063
 Sum of electronic and thermal Energies=               -40.159208
 Sum of electronic and thermal Enthalpies=             -40.158264
 Sum of electronic and thermal Free Energies=          -40.179362
 
                     E (Thermal)             CV                S
                      KCal/Mol        Cal/Mol-Kelvin    Cal/Mol-Kelvin
 Total                   31.252              6.309             44.404
 Electronic               0.000              0.000              0.000
 Translational            0.889              2.981             34.261
 Rotational               0.889              2.981             10.088
 Vibrational             29.475              0.347              0.055
                       Q            Log10(Q)             Ln(Q)
 Total Bot       0.230127D-13        -13.638032        -31.402730
 Total V=0       0.904968D+08          7.956633         18.320825
 Vib (Bot)       0.255145D-21        -21.593214        -49.720212
 Vib (V=0)       0.100335D+01          0.001452          0.003342
 Electronic      0.100000D+01          0.000000          0.000000
 Translational   0.252294D+07          6.401907         14.740936
 Rotational      0.357499D+02          1.553274          3.576547
 ***** Axes restored to original set *****
 -------------------------------------------------------------------
 Center     Atomic                   Forces (Hartrees/Bohr)
 Number     Number              X              Y              Z
 -------------------------------------------------------------------
      1        6          -0.000000000   -0.000000000   -0.000000000
      2        1           0.000000033   -0.000000093   -0.000000000
      3        1           0.000000033    0.000000047    0.000000081
      4        1           0.000000033    0.000000047   -0.000000081
      5        1          -0.000000099    0.000000000    0.000000000
 -------------------------------------------------------------------
 Cartesian Forces:  Max     0.000000099 RMS     0.000000051
 FormGI is forming the generalized inverse of G from B-inverse, IUseBI=4.

 GradGradGradGradGradGradGradGradGradGradGradGradGradGradGradGradGradGrad
 Berny optimization.
 Internal  Forces:  Max     0.000000099 RMS     0.000000053
 Search for a local minimum.
 Step number   1 out of a maximum of    2
 All quantities printed in internal units (Hartrees-Bohrs-Radians)
 Second derivative matrix not updated -- analytic derivatives used.
 The second derivative matrix:
                          R1        R2        R3        R4        A1
           R1           0.36971
           R2           0.00297   0.36971
           R3           0.00297   0.00297   0.36971
           R4           0.00297   0.00297   0.00297   0.36971
           A1           0.00207   0.00207  -0.00130  -0.00284   0.02210
           A2           0.00325  -0.00084   0.00361  -0.00602  -0.00968
           A3           0.00634  -0.00509  -0.00564   0.00438  -0.01460
           A4          -0.00084   0.00325   0.00361  -0.00602  -0.00968
           A5          -0.00509   0.00634  -0.00564   0.00438  -0.01460
           A6          -0.00573  -0.00573   0.00535   0.00612   0.02646
           D1          -0.00401  -0.00401  -0.00283   0.01085  -0.01521
           D2           0.00330   0.00330  -0.00849   0.00189   0.00919
           D3          -0.00435   0.00765  -0.00425   0.00094   0.00459
           D4          -0.00765   0.00435   0.00425  -0.00094  -0.00459
                          A2        A3        A4        A5        A6
           A2           0.04180
           A3          -0.02533   0.08165
           A4          -0.00209   0.02734   0.04180
           A5           0.02734  -0.03937  -0.02533   0.08165
           A6          -0.03204  -0.02969  -0.03204  -0.02969   0.09701
           D1          -0.01246   0.01664  -0.01246   0.01664   0.00684
           D2          -0.01062   0.00801  -0.01062   0.00801  -0.00396
           D3          -0.01606  -0.00080   0.00544   0.00881  -0.00198
           D4          -0.00544  -0.00881   0.01606   0.00080   0.00198
                          D1        D2        D3        D4
           D1           0.03389
           D2           0.00175   0.02106
           D3           0.00088   0.01053   0.02137
           D4          -0.00088  -0.01053   0.01084   0.02137
 ITU=  0
     Eigenvalues ---    0.04316   0.04867   0.07409   0.14701   0.14744
     Eigenvalues ---    0.36774   0.36775   0.36805   0.37862
 Angle between quadratic step and forces=  90.00 degrees.
 Linear search not attempted -- first point.
 Iteration  1 RMS(Cart)=  0.00000014 RMS(Int)=  0.00000000
 ClnCor:  largest displacement from symmetrization is 2.53D-14 for atom     4.
 Variable       Old X    -DE/DX   Delta X   Delta X   Delta X     New X
                                 (Linear)    (Quad)   (Total)
    R1        2.04893   0.00000   0.00000   0.00000   0.00000   2.04893
    R2        2.04893   0.00000   0.00000   0.00000   0.00000   2.04893
    R3        2.04893   0.00000   0.00000   0.00000   0.00000   2.04893
    R4        2.04893   0.00000   0.00000   0.00000   0.00000   2.04893
    A1        1.91063  -0.00000   0.00000  -0.00000   0.00000   1.91063
    A2        1.91063   0.00000   0.00000   0.00000   0.00000   1.91063
    A3        1.91063  -0.00000   0.00000   0.00000   0.00000   1.91063
    A4        1.91063  -0.00000   0.00000  -0.00000  -0.00000   1.91063
    A5        1.91063   0.00000   0.00000   0.00000  -0.00000   1.91063
    A6        1.91063   0.00000   0.00000  -0.00000   0.00000   1.91063
    D1       -2.09440   0.00000   0.00000   0.00000   0.00000  -2.09440
    D2        2.09440  -0.00000   0.00000   0.00000  -0.00000   2.09440
    D3       -2.09440  -0.00000   0.00000  -0.00000  -0.00000  -2.09440
    D4        2.09440  -0.00000   0.00000  -0.00000  -0.00000   2.09440
         Item               Value     Threshold  Converged?
 Maximum Force            0.000000     0.000450     YES
 RMS     Force            0.000000     0.000300     YES
 Maximum Displacement     0.000000     0.001800     YES
 RMS     Displacement     0.000000     0.001200     YES
 Predicted change in Energy=-5.177112D-14
 Optimization completed.
    -- Stationary point found.
                           ----------------------------
                           !   Optimized Parameters   !
                           ! (Angstroms and Degrees)  !
 --------------------------                            --------------------------
 ! Name  Definition              Value          Derivative Info.                !
 --------------------------------------------------------------------------------
 ! R1    R(1,2)                  1.0842         -DE/DX =    0.0                 !
 ! R2    R(1,3)                  1.0842         -DE/DX =    0.0                 !
 ! R3    R(1,4)                  1.0842         -DE/DX =    0.0                 !
 ! R4    R(1,5)                  1.0842         -DE/DX =    0.0                 !
 ! A1    A(2,1,3)              109.4712         -DE/DX =    0.0                 !
 ! A2    A(2,1,4)              109.4712         -DE/DX =    0.0                 !
 ! A3    A(2,1,5)              109.4712         -DE/DX =    0.0                 !
 ! A4    A(3,1,4)              109.4712         -DE/DX =    0.0                 !
 ! A5    A(3,1,5)              109.4712         -DE/DX =    0.0                 !
 ! A6    A(4,1,5)              109.4712         -DE/DX =    0.0                 !
 ! D1    D(2,1,4,3)           -120.0            -DE/DX =    0.0                 !
 ! D2    D(2,1,5,3)            120.0            -DE/DX =    0.0                 !
 ! D3    D(2,1,5,4)           -120.0            -DE/DX =    0.0                 !
 ! D4    D(3,1,5,4)            120.0            -DE/DX =    0.0                 !
 --------------------------------------------------------------------------------
 GradGradGradGradGradGradGradGradGradGradGradGradGradGradGradGradGradGrad

 Dipole is zero, so no output in dipole orientation.

 ----------------------------------------------------------------------

 Electric dipole moment (input orientation):
 (Debye = 10**-18 statcoulomb cm , SI units = C m)
                  (au)            (Debye)         (10**-30 SI)
   Tot        0.000000D+00      0.000000D+00      0.000000D+00
   x          0.000000D+00      0.000000D+00      0.000000D+00
   y          0.000000D+00      0.000000D+00      0.000000D+00
   z          0.000000D+00      0.000000D+00      0.000000D+00

 Dipole polarizability, Alpha (input orientation).
 (esu units = cm**3 , SI units = C**2 m**2 J**-1)
 Alpha(0;0):
               (au)            (10**-24 esu)      (10**-40 SI)
   iso        0.131950D+02      0.195529D+01      0.217556D+01
   aniso      0.000000D+00      0.000000D+00      0.000000D+00
   xx         0.131950D+02      0.195529D+01      0.217556D+01
   yx         0.000000D+00      0.000000D+00      0.000000D+00
   yy         0.131950D+02      0.195529D+01      0.217556D+01
   zx         0.000000D+00      0.000000D+00      0.000000D+00
   zy         0.000000D+00      0.000000D+00      0.000000D+00
   zz         0.131950D+02      0.195529D+01      0.217556D+01

 First dipole hyperpolarizability, Beta (input orientation).
 ||, _|_  parallel and perpendicular components, (z) with respect to z axis,
 vector components x,y,z.  Values do not include the 1/n! factor of 1/2.
 (esu units = statvolt**-1 cm**4 , SI units = C**3 m**3 J**-2)
 Beta(0;0,0):
               (au)            (10**-30 esu)      (10**-50 SI)
   || (z)     0.000000D+00      0.000000D+00      0.000000D+00
   _|_(z)     0.000000D+00      0.000000D+00      0.000000D+00
   x          0.000000D+00      0.000000D+00      0.000000D+00
   y          0.000000D+00      0.000000D+00      0.000000D+00
   z          0.000000D+00      0.000000D+00      0.000000D+00
   ||         0.000000D+00      0.000000D+00      0.000000D+00
   xxx       -0.323897D+02     -0.279822D+00     -0.103853D+00
   xxy        0.784836D-03      0.678037D-05      0.251647D-05
   yxy        0.161946D+02      0.139908D+00      0.519256D-01
   yyy       -0.229036D+02     -0.197869D+00     -0.734371D-01
   xxz        0.546617D-04      0.472234D-06      0.175265D-06
   yxz        0.193243D-04      0.166947D-06      0.619608D-07
   yyz       -0.546617D-04     -0.472234D-06     -0.175265D-06
   zxz        0.161951D+02      0.139913D+00      0.519274D-01
   zyz        0.229028D+02      0.197862D+00      0.734345D-01
   zzz        0.000000D+00      0.000000D+00      0.000000D+00

 ----------------------------------------------------------------------
 1\1\GINC-SV1-C724\Freq\RHF\6-311G(d,p)\C1H4\LME\09-Sep-2024\0\\#N Geom
 =AllCheck Guess=TCheck SCRF=Check GenChk RHF/6-311G(d,p) Freq\\Title C
 ard Required\\0,1\C,-0.67099567,0.685425635,0.\H,-0.3095929392,-0.3368
 150606,-0.0000009149\H,-0.3095736147,1.1965388864,0.8852826191\H,-0.30
 95751087,1.1965399429,-0.8852826191\H,-1.7552410174,0.6854387713,0.000
 0009149\\Version=ES64L-G16RevA.03\State=1-A1\HF=-40.2090117\RMSD=3.059
 e-10\RMSF=5.112e-08\ZeroPoint=0.0469482\Thermal=0.0498035\Dipole=0.,0.
 ,0.\DipoleDeriv=0.0717179,0.,0.,0.,0.0717179,0.,0.,0.,0.0717179,0.0375
 015,0.0783863,0.,0.0783863,-0.1565042,-0.0000002,0.,-0.0000002,0.06521
 42,0.0374986,-0.0391947,-0.0678879,-0.0391947,0.0097861,-0.0960052,-0.
 0678878,-0.0960051,-0.1010732,0.0374988,-0.0391946,0.0678876,-0.039194
 6,0.0097859,0.0960054,0.0678876,0.0960053,-0.1010732,-0.1842169,0.0000
 03,0.0000002,0.000003,0.0652142,0.,0.0000002,0.,0.0652142\Polar=13.194
 9742,0.,13.1949742,0.,0.,13.1949742\PolarDeriv=6.5705362,-0.0001591,-3
 .2852117,-0.0000111,-0.0000039,-3.2853243,-0.0001596,-3.2852118,4.6461
 897,-0.0000039,0.0000111,-4.6460312,-0.0000111,-0.0000039,0.0000111,-3
 .2853244,-4.6460307,0.,0.9960804,-2.371691,1.7829922,-0.0000009,0.0000
 015,0.5923913,-1.036286,2.255111,-8.4147245,0.0000015,-0.000006,-0.085
 296,0.0000003,0.0000015,-0.0000048,1.0645101,-1.4207012,-0.000004,0.99
 61895,1.1858787,0.890051,2.0539917,0.5155694,1.4854032,0.5181853,1.362
 1951,2.149283,0.5155694,2.41852,2.1006185,0.8975019,0.5155694,1.262030
 2,1.9575472,2.7683117,6.0991165,0.996181,1.1858794,0.8900501,-2.053986
 2,-0.5155674,1.4853986,0.5181847,1.3621922,2.1492903,-0.5155674,-2.418
 5255,2.1006218,-0.8974963,-0.5155674,-1.2620357,1.9575407,2.7683164,-6
 .0991165,-9.5589869,0.0000922,-0.2778817,0.0000064,0.0000004,-0.277868
 8,0.000075,-1.6942866,-0.5300387,0.0000004,0.0000005,0.5300866,0.00000
 52,0.0000004,-0.0000007,-1.6942738,0.5301037,0.000004\HyperPolar=-32.3
 896813,0.0007848,16.1945631,-22.9035519,0.0000547,0.0000193,-0.0000547
 ,16.1951181,22.9027671,0.\Quadrupole=0.,0.,0.,0.,0.,0.\PG=TD [O(C1),4C
 3(H1)]\NImag=0\\0.59932589,0.,0.59932589,0.,0.,0.59932589,-0.08616938,
 0.09002602,0.00000008,0.08708600,0.09002602,-0.30898345,-0.00000023,-0
 .09991936,0.33438607,0.00000008,-0.00000023,-0.05434161,-0.00000009,0.
 00000025,0.05176054,-0.08617279,-0.04501479,-0.07796865,0.00435820,0.0
 0507429,0.01213772,0.08708978,-0.04501479,-0.11800029,-0.11026115,-0.0
 1304939,-0.01420174,-0.02876937,0.04996166,0.12241496,-0.07796865,-0.1
 1026114,-0.24532135,0.00167437,0.00082655,0.00193082,0.08653696,0.1223
 7822,0.26372787,-0.08617252,-0.04501469,0.07796833,0.00435818,0.005074
 30,-0.01213772,0.00435848,0.00797470,-0.01046390,0.08708949,-0.0450146
 9,-0.11800056,0.11026137,-0.01304934,-0.01420177,0.02876938,0.00797466
 ,0.00999699,-0.01479777,0.04996156,0.12241525,0.07796832,0.11026137,-0
 .24532135,-0.00167439,-0.00082657,0.00193087,0.01046386,0.01479779,-0.
 02226820,-0.08653661,-0.12237847,0.26372787,-0.34081122,0.00000348,0.0
 0000024,-0.00963300,-0.00025526,0.,-0.00963368,0.00012781,0.00022122,-
 0.00963362,0.00012781,-0.00022120,0.36971154,0.00000347,-0.05434161,0.
 ,0.03599207,0.00300089,-0.00000003,-0.01799582,-0.00020992,0.00185415,
 -0.01799586,-0.00020991,-0.00185412,-0.00000385,0.05176054,0.00000024,
 0.,-0.05434161,0.00000003,0.,-0.00128062,-0.03116989,0.00185451,0.0019
 3087,0.03116989,-0.00185452,0.00193082,-0.00000027,0.,0.05176054\\0.,0
 .,0.,-0.00000003,0.00000009,0.,-0.00000003,-0.00000005,-0.00000008,-0.
 00000003,-0.00000005,0.00000008,0.00000010,0.,0.\\\@


 Fatherhood is pretending the present you love most is soap-on-a-rope.
 -- Bill Cosby
 Job cpu time:       0 days  0 hours  0 minutes  1.6 seconds.
 Elapsed time:       0 days  0 hours  0 minutes  1.6 seconds.
 File lengths (MBytes):  RWF=      6 Int=      0 D2E=      0 Chk=      1 Scr=      1
 Normal termination of Gaussian 16 at Mon Sep  9 14:15:08 2024.
