
 Working directory              : /scratch/cte/tmpdir_854925/molpro.1IdnMZvZ6l/
 Global scratch directory       : /scratch/cte/tmpdir_854925/molpro.1IdnMZvZ6l/
 Wavefunction directory         : /media/storage_5/cte/CAME_mono2/opt_new/V2/
 Main file repository           : /media/storage_5/cte/CAME_mono2/opt_new/V2/

 id        : liedlgroup

 Nodes     nprocs
 rune03       3
 GA implementation: MPI file
 GA implementation (serial work in mppx): MPI file

 Using customized tuning parameters: mindgm=1; mindgv=20; mindgc=4; mindgr=1; noblas=0; minvec=7
 default implementation of scratch files=sf  


 Variables initialized (1015), CPU time= 0.01 sec
 ***,CAME
 memory,12000,m
 orient,mass
 geometry={
 C         -0.0440898017       -0.0000221549        1.8731965141
 H         -0.8307590069        0.0009755564        2.6222440817
 H          0.5776916083       -0.8886755532        1.9684407987
 H          0.5792686537        0.8875964434        1.9676872693
 O         -0.7199786298        0.0000307078        0.6045246886
 C          0.1201865199        0.0000053219       -0.4521942368
 O         -0.5795097713       -0.0000208256       -1.5988198181
 H         -1.5159111078        0.0000069445       -1.3679203071
 O          1.3173602562        0.0000088338       -0.3988414656
 }
 
 mass,iso
 basis=vtz
 {hf,debug=1
 start,atden}
 ccsd(t)
                                                                                 !optg
 {frequencies,symm=auto,print=0}
 Commands initialized (818), CPU time= 0.01 sec, 672 directives.
 Default parameters read. Elapsed time= 0.25 sec

 Checking input...
 Passed
1


                                         ***  PROGRAM SYSTEM MOLPRO  ***
                                       Copyright, TTI GmbH Stuttgart, 2015
                                    Version 2022.1 linked Jan 25 2022 12:44:58


 **********************************************************************************************************************************
 LABEL *   CAME                                                                          
  64 bit mpp version                                                                     DATE: 31-Jul-24          TIME: 09:41:12  
 **********************************************************************************************************************************

 SHA1:             f3d4322b9bdbeed63a35be676bd653804e8a9433
 **********************************************************************************************************************************

 Memory per process:     12000 MW
 Total memory per node:  36000 MW

 GA preallocation disabled
 GA check disabled

 Variable memory set to 12000.0 MW

 ZCENTRE=MASS


 Geometry recognized as XYZ



 Using masses of most abundant isotopes

 **********************************************************************************************************************************
 SETTING BASIS          =    VTZ


 Recomputing integrals since basis changed


 Using spherical harmonics

 Library entry C      S cc-pVTZ              selected for orbital group  1
 Library entry C      P cc-pVTZ              selected for orbital group  1
 Library entry C      D cc-pVTZ              selected for orbital group  1
 Library entry C      F cc-pVTZ              selected for orbital group  1
 Library entry H      S cc-pVTZ              selected for orbital group  2
 Library entry H      P cc-pVTZ              selected for orbital group  2
 Library entry H      D cc-pVTZ              selected for orbital group  2
 Library entry O      S cc-pVTZ              selected for orbital group  3
 Library entry O      P cc-pVTZ              selected for orbital group  3
 Library entry O      D cc-pVTZ              selected for orbital group  3
 Library entry O      F cc-pVTZ              selected for orbital group  3


 PROGRAM * SEWARD (Integral evaluation for generally contracted gaussian basis sets)     Author: Roland Lindh, 1990

 Geometry written to block  1 of record 700

 Orientation using atomic masses  
 Molecule type: Asymmetric top
 Rotational constants:       4.5103250      3.2445343     10.7771266 GHz

 Point group  C1  



 ATOMIC COORDINATES

 NR  ATOM    CHARGE       X              Y              Z

   1  C       6.00   -0.083317650   -0.000041867    3.539828389
   2  H       1.00   -1.569906999    0.001843534    4.955323146
   3  H       1.00    1.091678924   -1.679353409    3.719814002
   4  H       1.00    1.094659108    1.677314187    3.718390038
   5  O       8.00   -1.360562426    0.000058029    1.142386097
   6  C       6.00    0.227119606    0.000010057   -0.854523263
   7  O       8.00   -1.095114754   -0.000039355   -3.021331579
   8  H       1.00   -2.864656823    0.000013123   -2.584994741
   9  O       8.00    2.489450092    0.000016693   -0.753701137

 Bond lengths in Bohr (Angstrom)

 1-2  2.052699894  1-3  2.057449641  1-4  2.057434528  1-5  2.716446902  5-6  2.551152922
     ( 1.086242005)     ( 1.088755463)     ( 1.088747465)     ( 1.437481795)     ( 1.350011988)

 6-7  2.538377826  6-9  2.264575970  7-8  1.822544642
     ( 1.343251698)     ( 1.198361996)     ( 0.964449090)

 Bond angles

  1-5-6  113.46625796   2-1-3  110.73328955   2-1-4  110.73514984   2-1-5  105.55005579

  3-1-4  109.32088681   3-1-5  110.22813936   4-1-5  110.22891977   5-6-7  110.12039002

  5-6-9  125.93541207   6-7-8  107.54069838   7-6-9  123.94419791

 NUCLEAR CHARGE:                   40
 NUMBER OF PRIMITIVE AOS:         303
 NUMBER OF SYMMETRY AOS:          274
 NUMBER OF CONTRACTIONS:          206   (  206A   )
 NUMBER OF INNER CORE ORBITALS:     0   (    0A   )
 NUMBER OF OUTER CORE ORBITALS:     5   (    5A   )
 NUMBER OF VALENCE ORBITALS:       24   (   24A   )


 NUCLEAR REPULSION ENERGY  184.46922629


 Eigenvalues of metric

         1 0.124E-02 0.153E-02 0.176E-02 0.187E-02 0.199E-02 0.267E-02 0.286E-02 0.349E-02


 Contracted 2-electron integrals neglected if value below      1.0D-11
 AO integral compression algorithm  1   Integral accuracy      1.0D-11

     711.721 MB (compressed) written to integral file ( 35.9%)

     Node minimum: 184.287 MB, node maximum: 342.360 MB


 NUMBER OF SORTED TWO-ELECTRON INTEGRALS:   75774834.     BUFFER LENGTH:  32768
 NUMBER OF SEGMENTS:   5  SEGMENT LENGTH:   15995235      RECORD LENGTH: 524288

 Memory used in sort:      16.55 MW

 SORT1 READ   247869345. AND WROTE    62115306. INTEGRALS IN    179 RECORDS. CPU TIME:     4.21 SEC, REAL TIME:     4.76 SEC
 SORT2 READ   187155243. AND WROTE   227303181. INTEGRALS IN   2109 RECORDS. CPU TIME:     1.80 SEC, REAL TIME:     2.16 SEC

 Node minimum:    75760620.  Node maximum:    75774834. integrals

 OPERATOR DM      FOR CENTER  0  COORDINATES:    0.000000    0.000000    0.000000


 **********************************************************************************************************************************
 DATASETS  * FILE   NREC   LENGTH (MB)   RECORD NAMES
              1      18       30.22       500      610      700      900      950      970     1000      129      960     1100   
                                          VAR    BASINP    GEOM    SYMINP    ZMAT    AOBASIS   BASIS     P2S    ABASIS      S 
                                         1400     1410     1200     1210     1080     1600     1650     1700   
                                           T        V       H0       H01     AOSYM     SMH    MOLCAS    OPER   

 PROGRAMS   *        TOTAL       INT
 CPU TIMES  *        15.68     15.42
 REAL TIME  *        21.47 SEC
 DISK USED  *        30.66 MB (local),        2.89 GB (total)
 GA USED    *         0.00 MB       (max)       0.00 MB       (current)
 **********************************************************************************************************************************


 Program * Restricted Hartree-Fock

 Orbital guess generated from atomic densities. Full valence occupancy:   29
 iflag=                    0   determine close
 iflag=                    0   determine occ
 iflag=                    0   determine ms2

 Initial occupancy:  20

 gap_min=      0.30  gap_min1=      0.30

 NELEC=   40   SYM=1   MS2= 0   THRE=1.0D-08   THRD=1.0D-06   THRG=1.0D-06  HFMA2=F  DIIS_START=2   DIIS_MAX=10   DIIS_INCORE=F

 Level shifts:    0.00 (CLOSED)    0.00 (OPEN)    0.30 (GAP_MIN)

 ITER           ETOT              DE          GRAD        DDIFF     DIIS  NEXP   TIME(IT)  TIME(TOT)  DIAG
   1     -302.66700410    -302.66700410     0.00D+00     0.58D-01     0     0       0.94      1.82    start
 is=1 ea=     0.16697558  ei=    -0.51921179  gap=     0.68618737  gapmin=     0.30000000  shift=     0.00000000
 hf_diag: swaporb= F   blockdiag= F   rotdiag= F   nit=                    2   nitocc=                    8
 eig sym= 1  -20.630432  -20.548764  -20.268082  -11.688754  -11.334931   -1.559251   -1.437454   -1.343241   -1.021220   -0.862771

 Occupancy:   20

 iclos after scf_occ
   1-  1    20

 iocc after scf_occ
   1-  1    20
   2     -302.74276862      -0.07576452     0.64D-02     0.87D-02     1     0       0.94      2.76    diag
 is=1 ea=     0.14852828  ei=    -0.53805263  gap=     0.68658091  gapmin=     0.30000000  shift=     0.00000000
 hf_diag: swaporb= F   blockdiag= F   rotdiag= F   nit=                    3   nitocc=                    8
 eig sym= 1  -20.622062  -20.611415  -20.587230  -11.443190  -11.300542   -1.515237   -1.403543   -1.382469   -0.986754   -0.843345

 Occupancy:   20

 iclos after scf_occ
   1-  1    20

 iocc after scf_occ
   1-  1    20
   3     -302.78973961      -0.04697099     0.44D-02     0.35D-02     2     0       0.87      3.63    diag
 is=1 ea=     0.13806946  ei=    -0.47877779  gap=     0.61684725  gapmin=     0.30000000  shift=     0.00000000
 hf_diag: swaporb= F   blockdiag= F   rotdiag= F   nit=                    4   nitocc=                    8
 eig sym= 1  -20.638425  -20.632487  -20.533439  -11.433218  -11.293758   -1.515244   -1.407382   -1.370764   -0.985914   -0.840240

 Occupancy:   20

 iclos after scf_occ
   1-  1    20

 iocc after scf_occ
   1-  1    20
   4     -302.79126856      -0.00152895     0.59D-03     0.67D-03     3     0       0.90      4.53    diag
 is=1 ea=     0.13934713  ei=    -0.48153610  gap=     0.62088323  gapmin=     0.30000000  shift=     0.00000000
 hf_diag: swaporb= F   blockdiag= F   rotdiag= F   nit=                    5   nitocc=                    8
 eig sym= 1  -20.620792  -20.618616  -20.547279  -11.438378  -11.298156   -1.513690   -1.403122   -1.375066   -0.985450   -0.838120

 Occupancy:   20

 iclos after scf_occ
   1-  1    20

 iocc after scf_occ
   1-  1    20
   5     -302.79152200      -0.00025344     0.25D-03     0.27D-03     4     0       0.94      5.47    diag
 is=1 ea=     0.13910216  ei=    -0.47951783  gap=     0.61862000  gapmin=     0.30000000  shift=     0.00000000
 hf_diag: swaporb= F   blockdiag= F   rotdiag= F   nit=                    6   nitocc=                    8
 eig sym= 1  -20.625305  -20.622189  -20.546378  -11.437463  -11.298736   -1.514711   -1.404704   -1.374953   -0.986290   -0.838840

 Occupancy:   20

 iclos after scf_occ
   1-  1    20

 iocc after scf_occ
   1-  1    20
   6     -302.79155813      -0.00003613     0.68D-04     0.10D-03     5     0       0.89      6.36    diag
 is=1 ea=     0.13927038  ei=    -0.48021484  gap=     0.61948522  gapmin=     0.30000000  shift=     0.00000000
 hf_diag: swaporb= F   blockdiag= F   rotdiag= F   nit=                    7   nitocc=                    8
 eig sym= 1  -20.623931  -20.621309  -20.546145  -11.436418  -11.298205   -1.514135   -1.404084   -1.374651   -0.985950   -0.838397

 Occupancy:   20

 iclos after scf_occ
   1-  1    20

 iocc after scf_occ
   1-  1    20
   7     -302.79156350      -0.00000537     0.24D-04     0.42D-04     6     0       0.71      7.07    diag
 is=1 ea=     0.13925686  ei=    -0.47991106  gap=     0.61916792  gapmin=     0.30000000  shift=     0.00000000
 hf_diag: swaporb= F   blockdiag= F   rotdiag= F   nit=                    8   nitocc=                    8
 eig sym= 1  -20.624331  -20.621175  -20.546738  -11.436536  -11.298481   -1.514252   -1.404130   -1.374912   -0.986046   -0.838395

 Occupancy:   20

 iclos after scf_occ
   1-  1    20

 iocc after scf_occ
   1-  1    20
   8     -302.79156411      -0.00000061     0.81D-05     0.15D-04     7     0       0.73      7.80    fixocc
 is=1 ea=     0.13926510  ei=    -0.47980952  gap=     0.61907462  gapmin=     0.30000000  shift=     0.00000000
 hf_diag: swaporb= F   blockdiag= F   rotdiag= F   nit=                    9   nitocc=                    8
   9     -302.79156419      -0.00000008     0.31D-05     0.55D-05     8     0       0.71      8.51    diag
 is=1 ea=     0.13926676  ei=    -0.47982289  gap=     0.61908965  gapmin=     0.30000000  shift=     0.00000000
 hf_diag: swaporb= F   blockdiag= F   rotdiag= F   nit=                   10   nitocc=                    8
  10     -302.79156420      -0.00000001     0.11D-05     0.21D-05     9     0       0.71      9.22    diag/orth
 is=1 ea=     0.13926674  ei=    -0.47981566  gap=     0.61908240  gapmin=     0.30000000  shift=     0.00000000
 hf_diag: swaporb= F   blockdiag= F   rotdiag= F   nit=                   11   nitocc=                    8
  11     -302.79156420      -0.00000000     0.38D-06     0.68D-06     9     0       0.72      9.94    diag
 is=1 ea=     0.13926708  ei=    -0.47981321  gap=     0.61908029  gapmin=     0.30000000  shift=     0.00000000
 hf_diag: swaporb= F   blockdiag= F   rotdiag= F   nit=                   12   nitocc=                    8
  12     -302.79156420      -0.00000000     0.92D-07     0.13D-06     0     0       0.66     10.60    diag

 Final occupancy:  20

 !RHF STATE 1.1 Energy               -302.791564197995
  RHF One-electron energy            -781.112354273195
  RHF Two-electron energy             293.851563789146
  RHF Kinetic energy                  302.299759752990
  RHF Nuclear energy                  184.469226286054
  RHF Virial quotient                  -1.001626876731

 !RHF STATE 1.1 Dipole moment          -1.15063836     0.00001981     0.89201469
 Dipole moment /Debye                  -2.92463099     0.00005035     2.26727519

 Orbital energies:

           1.1          2.1          3.1          4.1          5.1          6.1          7.1          8.1          9.1         10.1
    -20.624105   -20.621216   -20.546755   -11.436398   -11.298388    -1.514193    -1.404072    -1.374899    -0.985978    -0.838374

          11.1         12.1         13.1         14.1         15.1         16.1         17.1         18.1         19.1         20.1
     -0.780494    -0.704580    -0.704043    -0.643659    -0.612766    -0.590743    -0.553416    -0.510181    -0.480531    -0.479813

          21.1         22.1
      0.139267     0.151901


 HOMO     20.1    -0.479813 =     -13.0564eV
 LUMO     21.1     0.139267 =       3.7897eV
 LUMO-HOMO         0.619080 =      16.8460eV

 Orbitals saved in record  2100.2


 **********************************************************************************************************************************
 DATASETS  * FILE   NREC   LENGTH (MB)   RECORD NAMES
              1      18       30.22       500      610      700      900      950      970     1000      129      960     1100   
                                          VAR    BASINP    GEOM    SYMINP    ZMAT    AOBASIS   BASIS     P2S    ABASIS      S 
                                         1400     1410     1200     1210     1080     1600     1650     1700   
                                           T        V       H0       H01     AOSYM     SMH    MOLCAS    OPER   

              2       4        1.16       700     1000      520     2100   
                                         GEOM     BASIS   MCVARS     RHF  

 PROGRAMS   *        TOTAL    HF-SCF       INT
 CPU TIMES  *        26.29     10.62     15.42
 REAL TIME  *        32.74 SEC
 DISK USED  *        34.37 MB (local),        2.90 GB (total)
 GA USED    *         0.00 MB       (max)       0.00 MB       (current)
 **********************************************************************************************************************************


 PROGRAM * CCSD (Closed-shell coupled cluster)     Authors: C. Hampel, H.-J. Werner, 1991, M. Deegan, P.J. Knowles, 1992


 Convergence thresholds:  THRVAR = 1.00D-12  THRDEN = 1.00D-08

 CCSD(T)     terms to be evaluated (factor= 1.000)


 Using ITF CCSD(T) gradient implementation

 Number of core orbitals:           5 (   5 )
 Number of closed-shell orbitals:  15 (  15 )
 Number of external orbitals:     186 ( 186 )

 Molecular orbitals read from record     2100.2  Type=RHF/CANONICAL  

 Integral transformation finished. Total CPU:   7.58 sec, npass=  1  Memory used:  79.57 MW
 Time for re-packing tensors:             0.29 sec
  Reference energy                   -302.791564197996

  MP2 correlation energy               -1.030777229767
  MP2 total energy                   -303.822341427763

 ITER.      SQ.NORM     CORR.ENERGY   TOTAL ENERGY   ENERGY CHANGE        DEN1      VAR(S)    VAR(P)  DIIS     TIME
   1      1.25683584    -1.04385283  -303.83541703    -0.01307560     0.01583514  7.00e-03  4.95e-03  1  1     9.78
   2      1.27615150    -1.04380180  -303.83536600     0.00005103    -0.02510826  1.36e-04  8.24e-04  2  2    21.90
   3      1.28068160    -1.04383388  -303.83539808    -0.00003208    -0.00085119  3.69e-05  8.05e-05  3  3    30.52
   4      1.28406136    -1.04375825  -303.83532244     0.00007563    -0.00221806  6.54e-07  1.15e-05  4  4    39.24
   5      1.28510600    -1.04367465  -303.83523885     0.00008359    -0.00043156  6.09e-08  8.56e-07  5  5    47.96
   6      1.28536586    -1.04365809  -303.83522229     0.00001656    -0.00009341  4.25e-09  4.23e-08  6  0    56.79
   7      1.28539519    -1.04365554  -303.83521973     0.00000255    -0.00001068  5.16e-10  3.12e-09  6  1    65.71
   8      1.28539611    -1.04365547  -303.83521967     0.00000007    -0.00000020  2.67e-11  2.51e-10  6  2    74.56
   9      1.28539624    -1.04365550  -303.83521970    -0.00000003    -0.00000004  4.05e-12  2.46e-11  6  3    83.53
  10      1.28539613    -1.04365550  -303.83521970     0.00000000    -0.00000002  2.45e-13  2.05e-12  6  4    92.62
  11      1.28539620    -1.04365550  -303.83521970     0.00000000     0.00000000  3.46e-14  2.14e-13         100.94

 Norm of t1 vector:      0.10758414     S-energy:     -0.00000012   T1 diagnostic:  0.01388905

 Time per iteration:                      9.18 sec

 RESULTS
 =======

  Reference energy                   -302.791564197996
  CCSD correlation energy              -1.043655497509
  CCSD total energy                  -303.835219695505

  Triples (T) contribution             -0.042695422533
  Total correlation energy             -1.086350920042
  CCSD[T] total energy               -303.880104240126
 !CCSD(T) total energy               -303.877915118038

 Starting CP-CCSD(T) iterations.   Author: W. Gyorffy (2015)

 ITER.      NRM1           NRM2      VAR(S)+VAR(P)   DIIS    TIME
   1     0.00509356     1.14420696     2.31e-02      1  1   10.67
   2     0.00718038     1.10827548     1.28e-03      2  2   21.22
   3     0.00692462     1.11781867     4.18e-05      3  3   31.81
   4     0.00714851     1.11782462     6.60e-06      4  4   42.64
   5     0.00727763     1.11828474     1.05e-06      5  5   53.60
   6     0.00735211     1.11844517     1.21e-07      6  0   64.32
   7     0.00738107     1.11851954     1.52e-08      6  1   74.99
   8     0.00738811     1.11854691     2.54e-09      6  2   86.10
   9     0.00739090     1.11856168     3.51e-10      6  3   96.96
  10     0.00739138     1.11856470     6.32e-11      6  4  107.71
  11     0.00739125     1.11856533     9.26e-12      6  5  118.53
  12     0.00739128     1.11856535     9.81e-13            129.06


 Time per iteration:                     10.75 sec

 CPHF start vector      0.2 not found

 Starting Coupled-perturbed Hartree-Fock, convergence threshold= 1.0D-06

 ITER   MIC  DIIS      VAR         VARC       CPU
   1     0     1    0.77D-02    0.25D-02     0.63
   2     4     2    0.34D-03    0.10D-03     1.30
   3     5     3    0.94D-05    0.21D-05     1.98
   4     3     4    0.60D-06    0.11D-06     2.60

 CPHF convergence reached in  4 macroiterations and   12 microiterations.   Accuracy: 5.9819D-07

 CPHF solution written to record  8500.2

 Dipole moments (unrelaxed):           -1.03260427     0.00001334     0.80812395
 Orbital relaxation contribution:      -0.00837215    -0.00000018     0.00426562
 !CCSD(T) STATE 1.1 Dipole moment      -1.04097642     0.00001317     0.81238958
 Dipole moment /Debye                  -2.64589815     0.00003347     2.06488835

 CPU-time for coupled-perturbed hartree-fock:          2.60 sec

 Number of N-1 electron functions:              15
 Number of N-2 electron functions:             120
 Number of singly external CSFs:              2790
 Number of doubly external CSFs:           3893445
 Total number of CSFs:                     3896236

 CCSD(T) gradient info saved on record        55555.1




 **********************************************************************************************************************************
 DATASETS  * FILE   NREC   LENGTH (MB)   RECORD NAMES
              1      21     1240.92       500      610      700      900      950      970     1000      129      960     1100   
                                          VAR    BASINP    GEOM    SYMINP    ZMAT    AOBASIS   BASIS     P2S    ABASIS      S 
                                         1400     1410     1200     1210     1080     1600     1650     1700     1380     3791   
                                           T        V       H0       H01     AOSYM     SMH    MOLCAS    OPER     JKOP   
                                        55555   
                                        CCSD(T)    

              2       5        2.29       700     1000      520     2100     8500   
                                         GEOM     BASIS   MCVARS     RHF     CPHF   

 PROGRAMS   *        TOTAL   CCSD(T)    HF-SCF       INT
 CPU TIMES  *      2672.09   2645.80     10.62     15.42
 REAL TIME  *      2714.05 SEC
 DISK USED  *         1.21 GB (local),        6.44 GB (total)
 SF USED    *         9.25 GB
 GA USED    *         0.00 MB       (max)       0.00 MB       (current)
 **********************************************************************************************************************************


 PROGRAM * HESSIAN

 *** Long output written to logfile /media/storage_5/cte/CAME_mono2/opt_new/V2/mono2_freq.log ***


 Computing numerical hessian using default procedure for command CCSD(T)

 Using no symmetry in wavefunction calculations

 Running default procedure: HF-SCF000  CCSD(T)


 Numerically approximating hessian using central gradient differences

 Task list generated. Total number of displacements:     54

   14 tasks completed, CPU=15h 39m 43s Elapsed=15h 39m 45s
   29 tasks completed, CPU=1d 7h 26m 15s Elapsed=1d 7h 26m 19s
   44 tasks completed, CPU=1d 23h 20m 55s Elapsed=1d 23h 21m 1s

 All  54 tasks completed.  CPU= 204890.96 sec, Elapsed= 204897.73 sec.

 CCSD(T) hessian saved to record  5300.2

 PROGRAM * FREQUENCIES (Calculation of harmonic vibrational spectra for CCSD(T))


 Permanent Dipole Moment [debye]
   1-  3   -2.645898    0.000033    2.064888

 Dipole Moment Norm    3.3562689 [debye]

 Dipole Moment Derivatives [debye/ang]
              1             2             3             4             5             6             7             8
    1     1.5080194    -0.0006932     0.1958147    -0.1275549     0.0006758     0.2172237     0.1190521     0.3023560
    2    -0.0004704     1.4169873    -0.0005165     0.0007056     0.3933324    -0.0002758     0.2910983    -0.2388411
    3     0.9389369    -0.0000021     3.8122625     0.4552466    -0.0005451    -0.2052951    -0.3570574     0.1235754
              9            10            11            12            13            14            15            16
    1     0.0484895     0.1183569    -0.3024604     0.0489205    -3.5066028    -0.0000116     0.6571018     8.9016948
    2    -0.1545257    -0.2914393    -0.2374090     0.1549719     0.0000230    -1.3674880     0.0003672     0.0001885
    3    -0.0401066    -0.3571652    -0.1227408    -0.0395193     1.4474979    -0.0002496    -7.0682138    -1.0261236
             17            18            19            20            21            22            23            24
    1     0.0001833     1.1192125    -3.3056844    -0.0001365    -2.5529074     1.3909323     0.0000267     0.4215267
    2     1.9079396    -0.0000593    -0.0000310    -1.7401611     0.0000403     0.0000037     1.6038131    -0.0000221
    3     0.0000800    10.0040332    -2.0402446     0.0000080    -4.8470072     0.4759431    -0.0000138     1.5043030
             25            26            27
    1    -5.0986828     0.0000419    -0.1545066
    2    -0.0000791    -1.7379371     0.0000215
    3     0.4628497    -0.0001100    -3.1198594

 Projecting out rotations and translations

 Force Constants (Second Derivatives of the Energy) in [a.u.]
                             CX1         CY1         CZ1         HX2         HY2     
           CX1           0.5859177
           CY1          -0.0000016   0.5941247
           CZ1          -0.0786557   0.0000052   0.4955920
           HX2          -0.2053382   0.0001930   0.1471305   0.2144871
           HY2           0.0001900  -0.0534619  -0.0001787  -0.0002078   0.0475493
           HZ2           0.1324860  -0.0001647  -0.1679476  -0.1454085   0.0001866
           HX3          -0.1342094   0.1229377  -0.0090154  -0.0104856   0.0190769
           HY3           0.1250429  -0.2383979   0.0144433  -0.0025558   0.0023327
           HZ3          -0.0025018   0.0061051  -0.0492442   0.0108053  -0.0187865
           HX4          -0.1346557  -0.1231384  -0.0089556  -0.0105128  -0.0190511
           HY4          -0.1252377  -0.2379877  -0.0142770   0.0025897   0.0023813
           HZ4          -0.0024174  -0.0059421  -0.0492245   0.0108353   0.0187680
           OX5          -0.1263956   0.0000002  -0.0412880   0.0141215  -0.0000045
           OY5           0.0000020  -0.0641374   0.0000144  -0.0000184   0.0003097
           OZ5          -0.0769289   0.0000160  -0.1703228  -0.0213170   0.0000025
           CX6           0.0240062   0.0000126   0.0068255  -0.0051947  -0.0000047
           CY6           0.0000046  -0.0025281  -0.0000052  -0.0000026  -0.0000732
           CZ6           0.0141109  -0.0000111  -0.0655265  -0.0028144   0.0000052
           OX7          -0.0011506   0.0000007   0.0016267   0.0008018   0.0000000
           OY7          -0.0000006   0.0068768   0.0000007   0.0000012   0.0002486
           OZ7           0.0090454  -0.0000006   0.0049877  -0.0012261  -0.0000001
           HX8          -0.0006600  -0.0000006  -0.0009424   0.0001612   0.0000002
           HY8           0.0000002  -0.0010009   0.0000001  -0.0000001   0.0000032
           HZ8           0.0001343   0.0000009  -0.0019852   0.0000370  -0.0000001
           OX9          -0.0075145  -0.0000037  -0.0167256   0.0019597   0.0000010
           OY9           0.0000002  -0.0034875  -0.0000028   0.0000008   0.0007102
           OZ9           0.0047271  -0.0000085   0.0036710   0.0019579   0.0000030
                             HZ2         HX3         HY3         HZ3         HX4     
           HZ2           0.1979503
           HX3          -0.0016051   0.1444488
           HY3          -0.0004187  -0.1371393   0.2486956
           HZ3           0.0038815   0.0175331  -0.0152088   0.0592240
           HX4          -0.0015905   0.0114745   0.0158653   0.0020108   0.1449481
           HY4           0.0004237  -0.0159189  -0.0202361  -0.0003709   0.1373466
           HZ4           0.0038661   0.0020244   0.0003851   0.0019916   0.0174503
           OX5           0.0210297  -0.0107634  -0.0024314  -0.0233554  -0.0107879
           OY5          -0.0000220   0.0113945   0.0071439   0.0275995  -0.0113757
           OZ5          -0.0345396  -0.0115808   0.0029407  -0.0197858  -0.0115715
           CX6          -0.0068467  -0.0016988   0.0034864  -0.0084416  -0.0017010
           CY6          -0.0000059  -0.0002084   0.0007360   0.0024447   0.0002081
           CZ6          -0.0013181   0.0029968  -0.0008617   0.0046087   0.0029986
           OX7           0.0003680   0.0000751  -0.0005887   0.0007658   0.0000754
           OY7           0.0000014  -0.0002878  -0.0003584  -0.0013219   0.0002868
           OZ7          -0.0027733  -0.0005720   0.0000080  -0.0013355  -0.0005715
           HX8           0.0005090   0.0001860  -0.0001251   0.0002767   0.0001862
           HY8          -0.0000003   0.0002140  -0.0000582   0.0002488  -0.0002140
           HZ8           0.0000795   0.0002931  -0.0000901   0.0006009   0.0002933
           OX9           0.0010581   0.0009727  -0.0015542   0.0029072   0.0009731
           OY9          -0.0000000  -0.0000687   0.0001425  -0.0007100   0.0000725
           OZ9           0.0008011  -0.0000741  -0.0011978   0.0000587  -0.0000639
                             HY4         HZ4         OX5         OY5         OZ5     
           HY4           0.2482489
           HZ4           0.0150197   0.0591961
           OX5           0.0024410  -0.0234021   0.3629296
           OY5           0.0071315  -0.0275728  -0.0000028   0.0754319
           OZ5          -0.0029404  -0.0197598  -0.0213662  -0.0000168   0.5400631
           CX6          -0.0034925  -0.0084452  -0.1805289  -0.0000010   0.0763662
           CY6           0.0007380  -0.0024400  -0.0000015  -0.0699041   0.0000037
           CZ6           0.0008604   0.0046060   0.0522974   0.0000028  -0.2050973
           OX7           0.0005901   0.0007687   0.0183733  -0.0000011   0.0140589
           OY7          -0.0003573   0.0013197  -0.0000006   0.0152569  -0.0000015
           OZ7          -0.0000072  -0.0013319  -0.0177082  -0.0000020  -0.0880404
           HX8           0.0001252   0.0002760   0.0023492   0.0000002   0.0089870
           HY8          -0.0000582  -0.0002483  -0.0000003  -0.0009189  -0.0000004
           HZ8           0.0000900   0.0006020   0.0021744  -0.0000006  -0.0026033
           OX9           0.0015567   0.0029100  -0.0692978   0.0000023   0.0433523
           OY9           0.0001396   0.0007107  -0.0000001   0.0296865  -0.0000038
           OZ9           0.0012017   0.0000544   0.0516182  -0.0000026   0.0000859
                             CX6         CY6         CZ6         OX7         OY7     
           CX6           1.1100983
           CY6           0.0000043   0.2303913
           CZ6           0.0605938   0.0000078   0.6216839
           OX7          -0.1608383  -0.0000024  -0.1063930   0.6791387
           OY7           0.0000001  -0.0647229  -0.0000045  -0.0000111   0.0337544
           OZ7          -0.0492529  -0.0000053  -0.2585238   0.0031861   0.0000119
           HX8          -0.0363887   0.0000007   0.0031700  -0.4745571   0.0000127
           HY8          -0.0000009  -0.0029962   0.0000002   0.0000149  -0.0097077
           HZ8          -0.0478287   0.0000012   0.0132789   0.1469797  -0.0000052
           OX9          -0.7477541  -0.0000028  -0.0269600  -0.0619184  -0.0000006
           OY9          -0.0000043  -0.0916408   0.0000009  -0.0000024   0.0190096
           OZ9          -0.0229704  -0.0000011  -0.1137118  -0.0613607  -0.0000007
                             OZ7         HX8         HY8         HZ8         OX9     
           OZ7           0.4227541
           HX8           0.0876661   0.5059874
           HY8          -0.0000039  -0.0000135   0.0090691
           HZ8          -0.0783999  -0.0959662   0.0000045   0.0764485
           OX9          -0.0305670   0.0027357  -0.0000003  -0.0061171   0.8798437
           OY9          -0.0000010   0.0000002   0.0056678  -0.0000006   0.0000017
           OZ9           0.0026630  -0.0039763  -0.0000006  -0.0080214   0.0301422
                             OY9         OZ9     
           OY9           0.0397721
           OZ9           0.0000066   0.1143992


 Atomic Masses
   1-  9   12.000000    1.007825    1.007825    1.007825   15.994910   12.000000   15.994910    1.007825   15.994910

 Mass weighted Second Derivative Matrix
                             CX1         CY1         CZ1         HX2         HY2     
           CX1           0.0488265
           CY1          -0.0000001   0.0495104
           CZ1          -0.0065546   0.0000004   0.0412993
           HX2          -0.0590455   0.0000555   0.0423077   0.2128218
           HY2           0.0000546  -0.0153731  -0.0000514  -0.0002062   0.0471801
           HZ2           0.0380966  -0.0000474  -0.0482937  -0.1442795   0.0001852
           HX3          -0.0385922   0.0353510  -0.0025924  -0.0104042   0.0189288
           HY3           0.0359564  -0.0685519   0.0041532  -0.0025359   0.0023146
           HZ3          -0.0007194   0.0017555  -0.0141603   0.0107214  -0.0186406
           HX4          -0.0387205  -0.0354087  -0.0025752  -0.0104312  -0.0189032
           HY4          -0.0360124  -0.0684339  -0.0041054   0.0025696   0.0023628
           HZ4          -0.0006951  -0.0017087  -0.0141546   0.0107511   0.0186223
           OX5          -0.0091233   0.0000000  -0.0029802   0.0035172  -0.0000011
           OY5           0.0000001  -0.0046295   0.0000010  -0.0000046   0.0000771
           OZ5          -0.0055527   0.0000012  -0.0122939  -0.0053094   0.0000006
           CX6           0.0020005   0.0000011   0.0005688  -0.0014937  -0.0000014
           CY6           0.0000004  -0.0002107  -0.0000004  -0.0000007  -0.0000210
           CZ6           0.0011759  -0.0000009  -0.0054605  -0.0008093   0.0000015
           OX7          -0.0000830   0.0000001   0.0001174   0.0001997   0.0000000
           OY7          -0.0000000   0.0004964   0.0000000   0.0000003   0.0000619
           OZ7           0.0006529  -0.0000000   0.0003600  -0.0003054  -0.0000000
           HX8          -0.0001898  -0.0000002  -0.0002710   0.0001600   0.0000002
           HY8           0.0000000  -0.0002878   0.0000000  -0.0000001   0.0000032
           HZ8           0.0000386   0.0000003  -0.0005709   0.0000367  -0.0000001
           OX9          -0.0005424  -0.0000003  -0.0012073   0.0004881   0.0000003
           OY9           0.0000000  -0.0002517  -0.0000002   0.0000002   0.0001769
           OZ9           0.0003412  -0.0000006   0.0002650   0.0004876   0.0000007
                             HZ2         HX3         HY3         HZ3         HX4     
           HZ2           0.1964134
           HX3          -0.0015926   0.1433273
           HY3          -0.0004154  -0.1360745   0.2467647
           HZ3           0.0038514   0.0173969  -0.0150907   0.0587641
           HX4          -0.0015781   0.0113854   0.0157421   0.0019951   0.1438227
           HY4           0.0004204  -0.0157953  -0.0200790  -0.0003680   0.1362802
           HZ4           0.0038361   0.0020087   0.0003821   0.0019762   0.0173148
           OX5           0.0052378  -0.0026808  -0.0006056  -0.0058171  -0.0026869
           OY5          -0.0000055   0.0028380   0.0017793   0.0068741  -0.0028333
           OZ5          -0.0086027  -0.0028844   0.0007324  -0.0049280  -0.0028821
           CX6          -0.0019688  -0.0004885   0.0010025  -0.0024274  -0.0004891
           CY6          -0.0000017  -0.0000599   0.0002116   0.0007030   0.0000598
           CZ6          -0.0003790   0.0008617  -0.0002478   0.0013252   0.0008623
           OX7           0.0000916   0.0000187  -0.0001466   0.0001907   0.0000188
           OY7           0.0000003  -0.0000717  -0.0000893  -0.0003292   0.0000714
           OZ7          -0.0006907  -0.0001425   0.0000020  -0.0003326  -0.0001423
           HX8           0.0005051   0.0001846  -0.0001242   0.0002746   0.0001847
           HY8          -0.0000003   0.0002123  -0.0000578   0.0002469  -0.0002123
           HZ8           0.0000789   0.0002909  -0.0000894   0.0005962   0.0002911
           OX9           0.0002635   0.0002423  -0.0003871   0.0007241   0.0002424
           OY9          -0.0000000  -0.0000171   0.0000355  -0.0001768   0.0000181
           OZ9           0.0001995  -0.0000185  -0.0002983   0.0000146  -0.0000159
                             HY4         HZ4         OX5         OY5         OZ5     
           HY4           0.2463215
           HZ4           0.0149030   0.0587365
           OX5           0.0006080  -0.0058287   0.0226903
           OY5           0.0017762  -0.0068675  -0.0000002   0.0047160
           OZ5          -0.0007324  -0.0049215  -0.0013358  -0.0000010   0.0337647
           CX6          -0.0010043  -0.0024284  -0.0130306  -0.0000001   0.0055121
           CY6           0.0002122  -0.0007016  -0.0000001  -0.0050457   0.0000003
           CZ6           0.0002474   0.0013245   0.0037748   0.0000002  -0.0148040
           OX7           0.0001470   0.0001914   0.0011487  -0.0000001   0.0008790
           OY7          -0.0000890   0.0003287  -0.0000000   0.0009539  -0.0000001
           OZ7          -0.0000018  -0.0003317  -0.0011071  -0.0000001  -0.0055043
           HX8           0.0001242   0.0002739   0.0005851   0.0000000   0.0022384
           HY8          -0.0000577  -0.0002464  -0.0000001  -0.0002289  -0.0000001
           HZ8           0.0000893   0.0005974   0.0005416  -0.0000001  -0.0006484
           OX9           0.0003877   0.0007248  -0.0043325   0.0000001   0.0027104
           OY9           0.0000348   0.0001770  -0.0000000   0.0018560  -0.0000002
           OZ9           0.0002993   0.0000135   0.0032272  -0.0000002   0.0000054
                             CX6         CY6         CZ6         OX7         OY7     
           CX6           0.0925082
           CY6           0.0000004   0.0191993
           CZ6           0.0050495   0.0000006   0.0518070
           OX7          -0.0116094  -0.0000002  -0.0076795   0.0424597
           OY7           0.0000000  -0.0046717  -0.0000003  -0.0000007   0.0021103
           OZ7          -0.0035551  -0.0000004  -0.0186603   0.0001992   0.0000007
           HX8          -0.0104636   0.0000002   0.0009115  -0.1181966   0.0000032
           HY8          -0.0000002  -0.0008616   0.0000000   0.0000037  -0.0024179
           HZ8          -0.0137532   0.0000003   0.0038184   0.0366078  -0.0000013
           OX9          -0.0539731  -0.0000002  -0.0019460  -0.0038711  -0.0000000
           OY9          -0.0000003  -0.0066147   0.0000001  -0.0000002   0.0011885
           OZ9          -0.0016580  -0.0000001  -0.0082078  -0.0038363  -0.0000000
                             OZ7         HX8         HY8         HZ8         OX9     
           OZ7           0.0264305
           HX8           0.0218348   0.5020588
           HY8          -0.0000010  -0.0000134   0.0089986
           HZ8          -0.0195268  -0.0952211   0.0000045   0.0758549
           OX9          -0.0019110   0.0006814  -0.0000001  -0.0015236   0.0550077
           OY9          -0.0000001   0.0000001   0.0014117  -0.0000002   0.0000001
           OZ9           0.0001665  -0.0009904  -0.0000002  -0.0019979   0.0018845
                             OY9         OZ9     
           OY9           0.0024865
           OZ9           0.0000004   0.0071522


 Mass Weighted 2nd Derivative Matrix Eigenvalues
   1- 10    0.000000    0.000000    0.000000    0.000000    0.000000    0.000000    0.000625    0.001186    0.003446    0.009917
  11- 20    0.010734    0.017311    0.024039    0.031761    0.046268    0.053621    0.056606    0.057638    0.071329    0.083348
  21- 27    0.084539    0.086646    0.135012    0.355928    0.375702    0.381977    0.553400

 Mass Weighted 2nd Derivative Matrix Eigenvectors
              1             2             3             4             5             6             7             8
    1     0.6543581     0.0000000     0.0000000     0.0000000     0.0000000     0.0000000    -0.0003421     0.0001727
    2    -0.0000004     0.4681347    -0.0824200    -0.1818695     0.2201971     0.4760637    -0.1840609    -0.3481193
    3     0.0097235     0.1572150    -0.0718782     0.2121677    -0.2844960     0.0456126     0.0002812    -0.0001822
    4     0.2375081    -0.0175480    -0.0294587     0.0003275    -0.0009269     0.0127163     0.0003202     0.0000013
    5    -0.0000021     0.2265838    -0.0954020    -0.1099743     0.0836483     0.1020054     0.4513312    -0.3562868
    6     0.0530959     0.0270108    -0.0516735     0.0619070    -0.0834475     0.0266215    -0.0001471     0.0002326
    7     0.1957241    -0.0621260     0.0697528     0.0131413    -0.0285977     0.0853118    -0.4276182     0.0698851
    8     0.0000015     0.0985845     0.0267117    -0.0493494     0.0432062     0.2013636    -0.3374141    -0.0767196
    9    -0.0369218     0.1051518    -0.0041119     0.0070167    -0.0880263     0.0478099     0.1649092    -0.2341134
   10     0.1956714     0.0575943    -0.0771083    -0.0130394     0.0283216    -0.0819695     0.4268769    -0.0696879
   11     0.0000015     0.0984401     0.0268486    -0.0492802     0.0431611     0.2014738    -0.3382926    -0.0764002
   12    -0.0370225     0.0153048     0.0112740     0.1153248    -0.0752825    -0.0426145    -0.1644812     0.2336904
   13     0.4324441     0.1188716     0.1981962    -0.0023123     0.0064765    -0.0864562     0.0002103    -0.0001068
   14    -0.0000072     0.4661704    -0.2742210     0.0585207     0.3767577     0.0388513     0.1177044     0.6612314
   15     0.1833176     0.1181750    -0.1885817     0.2461943    -0.3319007     0.0986990     0.0000171     0.0000025
   16     0.1415200     0.1887066     0.3146799    -0.0036675     0.0102745    -0.1372369     0.0001361    -0.0000693
   17     0.0000010     0.0238955     0.0336811     0.3157552     0.2595923     0.1210859     0.0610511     0.1234678
   18    -0.0265057     0.1705408    -0.0496464     0.2119145    -0.2837697     0.0359133    -0.0000476     0.0000326
   19    -0.1285612     0.3252813     0.5424573    -0.0063197     0.0177061    -0.2365537    -0.0000924     0.0000537
   20    -0.0000058    -0.0157162    -0.1522182     0.6019921     0.4217916    -0.3551639    -0.1773292    -0.3895182
   21     0.1475521     0.1313455    -0.1666370     0.2459261    -0.3311858     0.0891391     0.0001011    -0.0000278
   22    -0.0175136     0.0762227     0.1271078    -0.0014813     0.0041498    -0.0554326    -0.0000102     0.0000055
   23    -0.0000038     0.0708429    -0.1176379     0.1232290     0.1342260    -0.1655803    -0.0818710    -0.1042913
   24     0.0968858     0.0109472    -0.0785522     0.0621609    -0.0843315     0.0383883     0.0000835    -0.0000381
   25     0.1769717     0.2128675     0.3549664    -0.0041373     0.0115905    -0.1548087     0.0001688    -0.0000877
   26     0.0000132    -0.2830593     0.4314548     0.4218791     0.1453526     0.5997301     0.2430443     0.0769197
   27    -0.3354201     0.3090505     0.1297255     0.2424807    -0.3215117    -0.0401032    -0.0004121     0.0002122
              9            10            11            12            13            14            15            16
    1     0.4415533     0.0000046     0.0780422     0.0793054    -0.0000155    -0.0614122    -0.3090524    -0.0000007
    2     0.0000153    -0.0203172    -0.0000094    -0.0000121    -0.0192306     0.0000161    -0.0000487    -0.4183166
    3    -0.3082015     0.0000555     0.4336134     0.2192647     0.0000418    -0.3375764    -0.4349133    -0.0000481
    4     0.2552193    -0.0000006     0.0050892    -0.1076595     0.0000175    -0.1724626     0.0596322    -0.0001143
    5     0.0004841    -0.0099211    -0.0000606    -0.0000000     0.0247218    -0.0000151     0.0000514     0.2621285
    6     0.0426246     0.0000197     0.1082749    -0.0714175    -0.0000032    -0.2604552     0.0325120    -0.0006367
    7     0.1498225    -0.0015313     0.0155054    -0.0024952     0.0164685    -0.0484478    -0.0404696     0.3226287
    8     0.0044038    -0.0071280    -0.0038207    -0.0064134     0.0095503    -0.0065065     0.0264912     0.1540092
    9    -0.2056752    -0.0039064     0.1292217     0.1640446     0.0383769     0.0488823    -0.1366201     0.4749825
   10     0.1503865     0.0015309     0.0154455    -0.0023272    -0.0164275    -0.0482258    -0.0407411    -0.3224517
   11    -0.0048735    -0.0071260     0.0038745     0.0064009     0.0095271     0.0065129    -0.0264308     0.1542988
   12    -0.2063634     0.0039319     0.1292919     0.1642765    -0.0383573     0.0491691    -0.1369341    -0.4741894
   13    -0.2837882     0.0000030    -0.0223596     0.4611409    -0.0000180     0.5520075     0.1721989    -0.0000446
   14    -0.0001701    -0.0524319     0.0000467     0.0000107    -0.2343841    -0.0000413     0.0000161     0.2233356
   15     0.0111477     0.0000412     0.3277293    -0.0765285    -0.0000220    -0.0577635     0.6327665     0.0001336
   16    -0.2024659    -0.0000246    -0.2152688    -0.0350488     0.0000128    -0.2587240     0.0836525     0.0000046
   17    -0.0000012     0.0024673     0.0000109    -0.0000054     0.8929732     0.0000577     0.0000108    -0.0114035
   18     0.0618327     0.0000055     0.0326845    -0.2646581    -0.0000309     0.1728149     0.1679696    -0.0003818
   19     0.1818482     0.0000373     0.3809980    -0.3672942    -0.0000189     0.2281683    -0.1728417     0.0001873
   20     0.0000201    -0.2844839     0.0000238    -0.0000133    -0.2144588    -0.0000036    -0.0000069    -0.0063062
   21    -0.1644792    -0.0000402    -0.4079491    -0.4390008    -0.0000040     0.3143311    -0.3059155     0.0000838
   22     0.0206441     0.0000228     0.0372788    -0.0723797    -0.0000033     0.0028392    -0.0672432     0.0001204
   23    -0.0000108     0.9493314    -0.0001218    -0.0000039    -0.0400787    -0.0000098    -0.0000071     0.0103463
   24    -0.1408814    -0.0000767    -0.3409913    -0.0170102     0.0000042    -0.1682779    -0.1665203     0.0003529
   25    -0.2497523    -0.0000285    -0.2581820    -0.0857769     0.0000254    -0.4360409     0.2181715    -0.0001921
   26     0.0001369     0.1201476    -0.0000395     0.0000219    -0.3088947    -0.0000144    -0.0000027     0.0093925
   27     0.4948196    -0.0000460    -0.3301457     0.4946303     0.0000114    -0.0308507     0.0066705     0.0000272
             17            18            19            20            21            22            23            24
    1    -0.3468021    -0.1230081     0.0640070    -0.0502875     0.0000705    -0.1969229     0.0188827     0.0965416
    2    -0.0000322     0.0002504    -0.0000325    -0.0006342    -0.1923962     0.0001006     0.0000198    -0.0001930
    3     0.2557207    -0.1044154     0.0920807    -0.2904152     0.0009570    -0.0422539     0.0207220     0.1167871
    4     0.3024253     0.0695944    -0.1403233     0.4475234    -0.0006228    -0.1408972    -0.0390815     0.3448693
    5     0.0001434    -0.0001680     0.0000613     0.0018753     0.7139308     0.0003969    -0.0000193    -0.0004537
    6     0.4906444     0.0860080    -0.1514280     0.4177486    -0.0014618    -0.1254931    -0.0427685    -0.3227324
    7     0.0923453    -0.0033787    -0.0157904    -0.0647072     0.1986834     0.5263004     0.0099366    -0.3432875
    8     0.0882467     0.0207168    -0.0352803     0.0175252     0.0618353     0.4007787    -0.0100325     0.5073154
    9    -0.3615395    -0.0010059    -0.1509533     0.4457643    -0.4283342     0.1392759    -0.0356075    -0.0455742
   10     0.0915024    -0.0031105    -0.0157669    -0.0659041    -0.1986798     0.5254811     0.0099916    -0.3438022
   11    -0.0883967    -0.0208725     0.0352207    -0.0166704     0.0630027    -0.4015866     0.0099809    -0.5062071
   12    -0.3623675    -0.0005203    -0.1511059     0.4482728     0.4255101     0.1400642    -0.0356431    -0.0451123
   13     0.3262409     0.0507557     0.0703551     0.0198986    -0.0000610    -0.0620742    -0.0761387    -0.0002312
   14     0.0000553    -0.0001332     0.0000235    -0.0001377    -0.0442742     0.0000129    -0.0000001     0.0000031
   15    -0.2370686     0.3231789    -0.1482407    -0.1882941     0.0005662    -0.0191588     0.0270805     0.0070092
   16    -0.0427119     0.0148039    -0.0206992     0.0464996    -0.0001027     0.0016022     0.8118230     0.0083770
   17    -0.0000496     0.0000043     0.0000184    -0.0000166    -0.0058204    -0.0000106     0.0000043    -0.0000004
   18     0.0171642    -0.4860295     0.6321990     0.2549505    -0.0007396     0.0598347     0.0565007    -0.0056673
   19     0.0103871     0.2614545    -0.0151003    -0.0241755     0.0000715    -0.0060641    -0.0888214    -0.0011164
   20     0.0000090    -0.0000015    -0.0000130     0.0000036     0.0021962    -0.0000004     0.0000008    -0.0000004
   21     0.0566322    -0.0167936    -0.3988772    -0.1043568     0.0003031    -0.0276766    -0.0080109     0.0014056
   22    -0.0155791     0.2094769     0.1314712     0.0192039    -0.0000550     0.0063174    -0.0440100     0.0007859
   23    -0.0000019     0.0000163     0.0000170     0.0000002    -0.0008088     0.0000022    -0.0000046    -0.0000001
   24    -0.0714366     0.6496959     0.5254227     0.0894672    -0.0002621     0.0299160    -0.1539182    -0.0024945
   25    -0.1173971    -0.2869103    -0.0826231    -0.0768127     0.0001867     0.0070855    -0.5387116    -0.0038234
   26     0.0000086    -0.0000088    -0.0000030     0.0000124     0.0034244     0.0000123    -0.0000026     0.0000005
   27     0.0205580     0.0207459    -0.0982835    -0.0283679     0.0000840    -0.0145199    -0.0187004    -0.0002616
             25            26            27
    1    -0.0000241    -0.2733079    -0.0003616
    2    -0.3130547    -0.0000427    -0.0000007
    3    -0.0001007     0.1510788    -0.0005836
    4    -0.0008580     0.6128711    -0.0003223
    5    -0.0172856    -0.0007860     0.0000011
    6     0.0007997    -0.5722143     0.0013034
    7    -0.3892138     0.1644403     0.0004617
    8     0.5452626    -0.2670339    -0.0005212
    9    -0.0459178     0.0297861     0.0002317
   10     0.3901609     0.1657759     0.0004631
   11     0.5445141     0.2679664     0.0005214
   12     0.0454433     0.0296655     0.0002295
   13    -0.0000003     0.0009327     0.0004625
   14     0.0014665    -0.0000015     0.0000002
   15     0.0000000    -0.0008161     0.0033052
   16    -0.0000018    -0.0043316    -0.0102869
   17     0.0007639     0.0000025     0.0000003
   18     0.0000035    -0.0028928     0.0017558
   19     0.0000005     0.0005884    -0.2341331
   20    -0.0004509    -0.0000002     0.0000064
   21    -0.0000006     0.0002687     0.0468885
   22    -0.0000019     0.0006390     0.9483121
   23    -0.0004370    -0.0000004    -0.0000268
   24     0.0000008     0.0001963    -0.2086656
   25     0.0000003     0.0020695     0.0047011
   26     0.0003762    -0.0000001     0.0000002
   27     0.0000029     0.0008566     0.0007265

   Low Vibration      Wavenumber
        Nr             [1/cm] 
        1                0.00
        2                0.00
        3                0.00
        4                0.00
        5                0.00
        6                0.00

     Vibration        Wavenumber
        Nr             [1/cm] 
        1              128.48
        2              177.00
        3              301.75
        4              511.90
        5              532.58
        6              676.35
        7              797.01
        8              916.12
        9             1105.72
       10             1190.35
       11             1223.02
       12             1234.12
       13             1372.90
       14             1484.06
       15             1494.63
       16             1513.14
       17             1888.82
       18             3066.80
       19             3150.84
       20             3177.04
       21             3824.05

 FREQUENCIES * CALCULATION OF NORMAL MODES FOR CCSD(T)


 Atomic Coordinates

  Nr  Atom  Charge       X              Y              Z

   1   C     6.00   -0.083317650   -0.000041867    3.539828389
   2   H     1.00   -1.569906999    0.001843534    4.955323146
   3   H     1.00    1.091678924   -1.679353409    3.719814002
   4   H     1.00    1.094659108    1.677314187    3.718390038
   5   O     8.00   -1.360562426    0.000058029    1.142386097
   6   C     6.00    0.227119606    0.000010057   -0.854523263
   7   O     8.00   -1.095114754   -0.000039355   -3.021331579
   8   H     1.00   -2.864656823    0.000013123   -2.584994741
   9   O     8.00    2.489450092    0.000016693   -0.753701137

 Normal Modes

                              1 A         2 A         3 A         4 A         5 A  
 Wavenumbers [cm-1]          128.48      177.00      301.75      511.90      532.58
 Intensities [km/mol]          1.74        4.37       15.85      108.04        1.50
 Intensities [relative]        0.30        0.75        2.71       18.48        0.26
           CX1             -0.00010     0.00005     0.12747     0.00000     0.02253
           CY1             -0.05313    -0.10049     0.00000    -0.00587    -0.00000
           CZ1              0.00008    -0.00005    -0.08897     0.00002     0.12517
           HX2              0.00032     0.00000     0.25423    -0.00000     0.00507
           HY2              0.44958    -0.35490     0.00048    -0.00988    -0.00006
           HZ2             -0.00015     0.00023     0.04246     0.00002     0.10785
           HX3             -0.42595     0.06961     0.14924    -0.00153     0.01545
           HY3             -0.33610    -0.07642     0.00439    -0.00710    -0.00381
           HZ3              0.16427    -0.23320    -0.20488    -0.00389     0.12872
           HX4              0.42522    -0.06942     0.14980     0.00152     0.01539
           HY4             -0.33698    -0.07610    -0.00485    -0.00710     0.00386
           HZ4             -0.16384     0.23278    -0.20556     0.00392     0.12879
           OX5              0.00005    -0.00003    -0.07096     0.00000    -0.00559
           OY5              0.02943     0.16533    -0.00004    -0.01311     0.00001
           OZ5              0.00000     0.00000     0.00279     0.00001     0.08195
           CX6              0.00004    -0.00002    -0.05845    -0.00001    -0.06214
           CY6              0.01762     0.03564    -0.00000     0.00071     0.00000
           CZ6             -0.00001     0.00001     0.01785     0.00000     0.00944
           OX7             -0.00002     0.00001     0.04547     0.00001     0.09526
           OY7             -0.04434    -0.09740     0.00001    -0.07113     0.00001
           OZ7              0.00003    -0.00001    -0.04113    -0.00001    -0.10200
           HX8             -0.00001     0.00001     0.02056     0.00002     0.03713
           HY8             -0.08155    -0.10389    -0.00001     0.94564    -0.00012
           HZ8              0.00008    -0.00004    -0.14033    -0.00008    -0.33966
           OX9              0.00004    -0.00002    -0.06245    -0.00001    -0.06456
           OY9              0.06077     0.01923     0.00003     0.03004    -0.00001
           OZ9             -0.00010     0.00005     0.12372    -0.00001    -0.08255

                              6 A         7 A         8 A         9 A        10 A  
 Wavenumbers [cm-1]          676.35      797.01      916.12     1105.72     1190.35
 Intensities [km/mol]          0.07       22.55       53.75       33.86        1.19
 Intensities [relative]        0.01        3.86        9.19        5.79        0.20
           CX1              0.02289    -0.00000    -0.01773    -0.08922    -0.00000
           CY1             -0.00000    -0.00555     0.00000    -0.00001    -0.12076
           CZ1              0.06330     0.00001    -0.09745    -0.12555    -0.00001
           HX2             -0.10724     0.00002    -0.17179     0.05940    -0.00011
           HY2             -0.00000     0.02463    -0.00001     0.00005     0.26111
           HZ2             -0.07114    -0.00000    -0.25944     0.03239    -0.00063
           HX3             -0.00249     0.01640    -0.04826    -0.04031     0.32137
           HY3             -0.00639     0.00951    -0.00648     0.02639     0.15341
           HZ3              0.16341     0.03823     0.04869    -0.13609     0.47313
           HX4             -0.00232    -0.01636    -0.04804    -0.04058    -0.32120
           HY4              0.00638     0.00949     0.00649    -0.02633     0.15370
           HZ4              0.16364    -0.03821     0.04898    -0.13640    -0.47234
           OX5              0.11530    -0.00000     0.13802     0.04306    -0.00001
           OY5              0.00000    -0.05861    -0.00001     0.00000     0.05584
           OZ5             -0.01914    -0.00001    -0.01444     0.15822     0.00003
           CX6             -0.01012     0.00000    -0.07469     0.02415     0.00000
           CY6             -0.00000     0.25778     0.00002     0.00000    -0.00329
           CZ6             -0.07640    -0.00001     0.04989     0.04849    -0.00011
           OX7             -0.09184    -0.00000     0.05705    -0.04322     0.00005
           OY7             -0.00000    -0.05362    -0.00000    -0.00000    -0.00158
           OZ7             -0.10977    -0.00000     0.07860    -0.07649     0.00002
           HX8             -0.07210    -0.00000     0.00283    -0.06698     0.00012
           HY8             -0.00000    -0.03992    -0.00001    -0.00001     0.01031
           HZ8             -0.01694     0.00000    -0.16762    -0.16587     0.00035
           OX9             -0.02145     0.00001    -0.10903     0.05455    -0.00005
           OY9              0.00001    -0.07724    -0.00000    -0.00000     0.00235
           OZ9              0.12368     0.00000    -0.00771     0.00167     0.00001

                             11 A        12 A        13 A        14 A        15 A  
 Wavenumbers [cm-1]         1223.02     1234.12     1372.90     1484.06     1494.63
 Intensities [km/mol]         21.69       72.49      584.71       64.64        7.69
 Intensities [relative]        3.71       12.40      100.00       11.06        1.31
           CX1             -0.10011    -0.03551     0.01848    -0.01452     0.00002
           CY1             -0.00001     0.00007    -0.00001    -0.00018    -0.05554
           CZ1              0.07382    -0.03014     0.02658    -0.08384     0.00028
           HX2              0.30125     0.06932    -0.13978     0.44578    -0.00062
           HY2              0.00014    -0.00017     0.00006     0.00187     0.71115
           HZ2              0.48874     0.08567    -0.15084     0.41612    -0.00146
           HX3              0.09199    -0.00337    -0.01573    -0.06446     0.19791
           HY3              0.08790     0.02064    -0.03514     0.01746     0.06159
           HZ3             -0.36013    -0.00100    -0.15037     0.44403    -0.42667
           HX4              0.09115    -0.00310    -0.01571    -0.06565    -0.19791
           HY4             -0.08805    -0.02079     0.03508    -0.01661     0.06276
           HZ4             -0.36096    -0.00052    -0.15052     0.44653     0.42386
           OX5              0.08157     0.01269     0.01759     0.00498    -0.00002
           OY5              0.00001    -0.00003     0.00001    -0.00003    -0.01107
           OZ5             -0.05928     0.08081    -0.03707    -0.04708     0.00014
           CX6             -0.01233     0.00427    -0.00598     0.01342    -0.00003
           CY6             -0.00001     0.00000     0.00001    -0.00000    -0.00168
           CZ6              0.00495    -0.14030     0.18250     0.07360    -0.00021
           OX7              0.00260     0.06537    -0.00378    -0.00604     0.00002
           OY7              0.00000    -0.00000    -0.00000     0.00000     0.00055
           OZ7              0.01416    -0.00420    -0.09974    -0.02609     0.00008
           HX8             -0.01552     0.20866     0.13096     0.01913    -0.00005
           HY8             -0.00000     0.00002     0.00002     0.00000    -0.00081
           HZ8             -0.07116     0.64717     0.52338     0.08912    -0.00026
           OX9             -0.02935    -0.07174    -0.02066    -0.01921     0.00005
           OY9              0.00000    -0.00000    -0.00000     0.00000     0.00086
           OZ9              0.00514     0.00519    -0.02457    -0.00709     0.00002

                             16 A        17 A        18 A        19 A        20 A  
 Wavenumbers [cm-1]         1513.14     1888.82     3066.80     3150.84     3177.04
 Intensities [km/mol]          7.39      340.87       22.88       15.52       12.13
 Intensities [relative]        1.26       58.30        3.91        2.65        2.08
           CX1             -0.05685     0.00545     0.02787    -0.00001    -0.07890
           CY1              0.00003     0.00001    -0.00006    -0.09037    -0.00001
           CZ1             -0.01220     0.00598     0.03371    -0.00003     0.04361
           HX2             -0.14035    -0.03893     0.34353    -0.00085     0.61049
           HY2              0.00040    -0.00002    -0.00045    -0.01722    -0.00078
           HZ2             -0.12500    -0.04260    -0.32148     0.00080    -0.56999
           HX3              0.52425     0.00990    -0.34195    -0.38770     0.16380
           HY3              0.39922    -0.00999     0.50534     0.54314    -0.26600
           HZ3              0.13873    -0.03547    -0.04540    -0.04574     0.02967
           HX4              0.52344     0.00995    -0.34246     0.38864     0.16513
           HY4             -0.40002     0.00994    -0.50424     0.54240     0.26692
           HZ4              0.13952    -0.03550    -0.04494     0.04527     0.02955
           OX5             -0.01552    -0.01904    -0.00006    -0.00000     0.00023
           OY5              0.00000    -0.00000     0.00000     0.00037    -0.00000
           OZ5             -0.00479     0.00677     0.00175    -0.00000    -0.00020
           CX6              0.00046     0.23435     0.00242    -0.00000    -0.00125
           CY6             -0.00000     0.00000    -0.00000     0.00022     0.00000
           CZ6              0.01727     0.01631    -0.00164     0.00000    -0.00084
           OX7             -0.00152    -0.02221    -0.00028     0.00000     0.00015
           OY7             -0.00000     0.00000    -0.00000    -0.00011    -0.00000
           OZ7             -0.00692    -0.00200     0.00035    -0.00000     0.00007
           HX8              0.00629    -0.04384     0.00078    -0.00000     0.00064
           HY8              0.00000    -0.00000    -0.00000    -0.00044    -0.00000
           HZ8              0.02980    -0.15332    -0.00248     0.00000     0.00020
           OX9              0.00177    -0.13470    -0.00096     0.00000     0.00052
           OY9              0.00000    -0.00000     0.00000     0.00009    -0.00000
           OZ9             -0.00363    -0.00468    -0.00007     0.00000     0.00021

                             21 A  
 Wavenumbers [cm-1]         3824.05
 Intensities [km/mol]         79.63
 Intensities [relative]       13.62
           CX1             -0.00010
           CY1             -0.00000
           CZ1             -0.00017
           HX2             -0.00032
           HY2              0.00000
           HZ2              0.00130
           HX3              0.00046
           HY3             -0.00052
           HZ3              0.00023
           HX4              0.00046
           HY4              0.00052
           HZ4              0.00023
           OX5              0.00012
           OY5              0.00000
           OZ5              0.00083
           CX6             -0.00297
           CY6              0.00000
           CZ6              0.00051
           OX7             -0.05854
           OY7              0.00000
           OZ7              0.01172
           HX8              0.94462
           HY8             -0.00003
           HZ8             -0.20785
           OX9              0.00118
           OY9              0.00000
           OZ9              0.00018


 Normal Modes of low/zero frequencies

                                  1           2           3           4           5
 Wavenumbers [cm-1]            0.00        0.00        0.00        0.00        0.00
 Intensities [km/mol]          0.00        0.00        0.00        0.00        0.00
 Intensities [relative]        0.00        0.00        0.00        0.00        0.00
           CX1              0.18890     0.00000     0.00000    -0.00000    -0.00000
           CY1             -0.00000     0.13514    -0.02379    -0.05250     0.06357
           CZ1              0.00281     0.04538    -0.02075     0.06125    -0.08213
           HX2              0.23658    -0.01748    -0.02934     0.00033    -0.00092
           HY2             -0.00000     0.22570    -0.09503    -0.10955     0.08332
           HZ2              0.05289     0.02691    -0.05147     0.06167    -0.08312
           HX3              0.19496    -0.06188     0.06948     0.01309    -0.02849
           HY3              0.00000     0.09820     0.02661    -0.04916     0.04304
           HZ3             -0.03678     0.10474    -0.00410     0.00699    -0.08768
           HX4              0.19491     0.05737    -0.07681    -0.01299     0.02821
           HY4              0.00000     0.09806     0.02674    -0.04909     0.04299
           HZ4             -0.03688     0.01525     0.01123     0.11488    -0.07499
           OX5              0.10813     0.02972     0.04956    -0.00058     0.00162
           OY5             -0.00000     0.11656    -0.06857     0.01463     0.09420
           OZ5              0.04584     0.02955    -0.04715     0.06156    -0.08299
           CX6              0.04085     0.05447     0.09084    -0.00106     0.00297
           CY6              0.00000     0.00690     0.00972     0.09115     0.07494
           CZ6             -0.00765     0.04923    -0.01433     0.06117    -0.08192
           OX7             -0.03215     0.08133     0.13564    -0.00158     0.00443
           OY7             -0.00000    -0.00393    -0.03806     0.15052     0.10546
           OZ7              0.03689     0.03284    -0.04167     0.06149    -0.08281
           HX8             -0.01745     0.07593     0.12661    -0.00148     0.00413
           HY8             -0.00000     0.07057    -0.11718     0.12275     0.13370
           HZ8              0.09651     0.01090    -0.07825     0.06192    -0.08400
           OX9              0.04425     0.05323     0.08876    -0.00103     0.00290
           OY9              0.00000    -0.07078     0.10788     0.10549     0.03634
           OZ9             -0.08387     0.07727     0.03244     0.06063    -0.08039

                                  6
 Wavenumbers [cm-1]            0.00
 Intensities [km/mol]          0.00
 Intensities [relative]        0.00
           CX1              0.00000
           CY1              0.13743
           CZ1              0.01317
           HX2              0.01267
           HY2              0.10161
           HZ2              0.02652
           HX3              0.08498
           HY3              0.20058
           HZ3              0.04762
           HX4             -0.08165
           HY4              0.20069
           HZ4             -0.04245
           OX5             -0.02162
           OY5              0.00971
           OZ5              0.02468
           CX6             -0.03962
           CY6              0.03495
           CZ6              0.01037
           OX7             -0.05915
           OY7             -0.08881
           OZ7              0.02229
           HX8             -0.05522
           HY8             -0.16494
           HZ8              0.03824
           OX9             -0.03871
           OY9              0.14996
           OZ9             -0.01003


 Frequencies dumped to record   5400.2

 Zero point energy:  0.06781346 [H]    14883.33 [1/CM]      178.04 [KJ/MOL]
 Frequency information read from record  5400.2

 Recomputing wavefunction at initial geometry


 **********************************************************************************************************************************
 DATASETS  * FILE   NREC   LENGTH (MB)   RECORD NAMES
              1      21     1240.92       500      610      700      900      950      970     1000      129      960     1100   
                                          VAR    BASINP    GEOM    SYMINP    ZMAT    AOBASIS   BASIS     P2S    ABASIS      S 
                                         1400     1410     1200     1210     1080     1600     1650     1700     1380     3791   
                                           T        V       H0       H01     AOSYM     SMH    MOLCAS    OPER     JKOP   
                                        55555   
                                        CCSD(T)    

              2       8        2.33       700     1000      520     2100     8500     5300     5450     5400   
                                         GEOM     BASIS   MCVARS     RHF     CPHF     HESS     NMOD     FREQ   

 PROGRAMS   *        TOTAL      FREQ   CCSD(T)    HF-SCF       INT
 CPU TIMES  *    158083.84 155411.74   2645.80     10.62     15.42
 REAL TIME  *    210332.29 SEC
 DISK USED  *        16.24 GB (local),       51.68 GB (total)
 SF USED    *         9.25 GB
 GA USED    *         0.00 MB       (max)       0.00 MB       (current)
 **********************************************************************************************************************************

 CCSD(T)/cc-pVTZ energy=   -303.877915113122

         CCSD(T)          HF-SCF
   -303.87791512   -302.79156420
 **********************************************************************************************************************************
 Molpro calculation terminated
