
 Working directory              : /tmp/lme/molpro.jQ5N9WIvpl/
 Global scratch directory       : /tmp/lme/molpro.jQ5N9WIvpl/
 Wavefunction directory         : /home/lme/wfu/
 Main file repository           : /tmp/lme/molpro.jQ5N9WIvpl/

 id        : liedlgroup

 Nodes     nprocs
 sv1-c724     1
 GA implementation: MPI file
 GA implementation (serial work in mppx): MPI file

 Using customized tuning parameters: mindgm=1; mindgv=20; mindgc=4; mindgr=1; noblas=0; minvec=7
 default implementation of scratch files=df  


 Variables initialized (1042), CPU time= 0.00 sec
 
                  orient,mass
                  geometry=/home/lme/Theoretische_Chemie/Nomodeco/deuterium_calculations/h2o_dimer_deuterium/water_dimer.xyz
 Including file /home/lme/Theoretische_Chemie/Nomodeco/deuterium_calculations/h2o_dimer_deuterium/water_dimer.xyz
                  mass,H6=2.014                                                  ! Set custom mass for hydrogen
                  basis=6-311g(d,p)
                  {hf
                  start, atden}
                  optg;
                  {frequencies, symm=auto, print=0, analytical}
                  put, molden, Water_dimer_H5.molden
 Commands initialized (847), CPU time= 0.01 sec, 718 directives.
 Default parameters read. Elapsed time= 0.06 sec

 Checking input...
 Passed
1


                                         ***  PROGRAM SYSTEM MOLPRO  ***
                                       Copyright, TTI GmbH Stuttgart, 2015
                                    Version 2024.1 linked Wed Jan 31 11:42:09 2024


 **********************************************************************************************************************************
 LABEL *                                                                                                                                                                 
  (6 PROC) 64 bit serial version                                                         DATE: 21-Sep-24          TIME: 23:00:03  
 **********************************************************************************************************************************

 SHA1:             675817fde4514a4a933b69e420913a90cee4ef91
 **********************************************************************************************************************************

 Memory per process:        32 MW
 Total memory per node:     32 MW

 GA preallocation disabled
 GA check disabled

 Variable memory set to 32.0 MW

 ZCENTRE=MASS


 Geometry recognized as XYZ


 SETTING MASS FOR H6   (Z=  1)   TO   2.014
 SETTING BASIS          =    6-311G(D,P)


 Recomputing integrals since basis changed


 Using spherical harmonics

 Library entry O      S 6-311G               selected for orbital group  1
 Library entry O      P 6-311G               selected for orbital group  1
 Library entry O      D 6-311G*              selected for orbital group  1
 Library entry H      S 6-311G               selected for orbital group  2
 Library entry H      P 6-311G**             selected for orbital group  2


 PROGRAM * SEWARD (Integral evaluation for generally contracted gaussian basis sets)     Author: Roland Lindh, 1990

 Geometry written to block  1 of record 700

 Orientation using atomic masses  
 Molecule type: Asymmetric top
 Rotational constants:       5.6082242      5.7813729    182.9376077 GHz  (calculated with average atomic masses)

 Point group  C1  



 ATOMIC COORDINATES

 NR  ATOM    CHARGE       X              Y              Z

   1  O1      8.00    0.011283016    0.043233579   -3.069179099
   2  H2      1.00   -0.208287909    1.017061267   -1.666808220
   3  H3      1.00   -0.088696187   -1.598814537   -2.562349017
   4  O4      8.00    0.028467663    0.116720804    2.677703008
   5  H5      1.00   -0.191103262    1.090548492    4.080073887
   6  H6      1.00   -0.071511540   -1.525327312    3.184533091

 Bond lengths in Bohr (Angstrom)

 1-2  1.721393575  1-3  1.721393211  4-5  1.721393575  4-6  1.721393211
     ( 0.910922251)     ( 0.910922058)     ( 0.910922251)     ( 0.910922058)

 Bond angles

  2-1-3  107.00002446   5-4-6  107.00002446

 NUCLEAR CHARGE:                   20
 NUMBER OF PRIMITIVE AOS:          96
 NUMBER OF SYMMETRY AOS:           94
 NUMBER OF CONTRACTIONS:           60   (   60A   )
 NUMBER OF INNER CORE ORBITALS:     0   (    0A   )
 NUMBER OF OUTER CORE ORBITALS:     2   (    2A   )
 NUMBER OF VALENCE ORBITALS:       12   (   12A   )


 NUCLEAR REPULSION ENERGY   36.71638738


 Eigenvalues of metric

         1 0.147E-01 0.154E-01 0.316E-01 0.343E-01 0.742E-01 0.853E-01 0.888E-01 0.935E-01


 Contracted 2-electron integrals neglected if value below      1.0D-11
 AO integral compression algorithm  1   Integral accuracy      1.0D-11

     5.767 MB (compressed) written to integral file ( 36.3%)


 NUMBER OF SORTED TWO-ELECTRON INTEGRALS:    1675365.     BUFFER LENGTH:  32768
 NUMBER OF SEGMENTS:   1  SEGMENT LENGTH:    1675365      RECORD LENGTH: 524288

 Memory used in sort:       2.23 MW

 SORT1 READ     2064508. AND WROTE     1172328. INTEGRALS IN      4 RECORDS. CPU TIME:     0.02 SEC, REAL TIME:     0.02 SEC
 SORT2 READ     1172328. AND WROTE     1675365. INTEGRALS IN     22 RECORDS. CPU TIME:     0.05 SEC, REAL TIME:     0.05 SEC

 FILE SIZES:   FILE 1:    36.0 MBYTE,  FILE 4:    16.8 MBYTE,   TOTAL:     52.8 MBYTE

 OPERATOR DM      FOR CENTER  0  COORDINATES:    0.000000    0.000000    0.000000


 **********************************************************************************************************************************
 DATASETS  * FILE   NREC   LENGTH (MB)   RECORD NAMES
              1      19       33.05       500      610      700      900      950      970     1000      129      960     1100   
                                          VAR    BASINP    GEOM    SYMINP    ZMAT    AOBASIS   BASIS     P2S    ABASIS      S 
                                         1400     1410     1200     1210     1080     1600     1650     1300     1700   
                                           T        V       H0       H01     AOSYM     SMH    MOLCAS    ERIS     OPER   

 PROGRAMS   *        TOTAL       INT
 CPU TIMES  *         0.35      0.25
 REAL TIME  *         0.43 SEC
 DISK USED  *        50.78 MB
 **********************************************************************************************************************************


 Program * Restricted Hartree-Fock

 Orbital guess generated from atomic densities.

 Initial occupancy:  10

 NELEC=   20   SYM=1   MS2= 0   THRE=1.0D-08   THRD=1.0D-06   THRG=1.0D-06  HFMA2=F  DIIS_START=2   DIIS_MAX=10   DIIS_INCORE=F

 Level shifts:    0.00 (CLOSED)    0.00 (OPEN)    0.30 (GAP_MIN)

 ITER           ETOT              DE          GRAD        DDIFF     DIIS  NEXP   TIME(IT)  TIME(TOT)  DIAG
   1     -152.02452425    -152.02452425     0.00D+00     0.62D-01     0     0       0.01      0.03    start
   2     -152.07948999      -0.05496575     0.14D-01     0.97D-02     1     0       0.01      0.04    diag
   3     -152.09484053      -0.01535053     0.72D-02     0.31D-02     2     0       0.01      0.05    diag
   4     -152.09518536      -0.00034484     0.76D-03     0.67D-03     3     0       0.01      0.06    diag
   5     -152.09520964      -0.00002428     0.18D-03     0.24D-03     4     0       0.01      0.07    diag
   6     -152.09521049      -0.00000084     0.29D-04     0.45D-04     5     0       0.01      0.08    diag
   7     -152.09521051      -0.00000003     0.68D-05     0.57D-05     6     0       0.02      0.10    diag
   8     -152.09521052      -0.00000000     0.27D-05     0.23D-05     7     0       0.01      0.11    fixocc
   9     -152.09521052      -0.00000000     0.36D-06     0.45D-06     8     0       0.01      0.12    diag
  10     -152.09521052      -0.00000000     0.53D-07     0.59D-07     0     0       0.01      0.13    diag/orth

 Final occupancy:  10

 !RHF STATE 1.1 Energy               -152.095210519096
  RHF One-electron energy            -282.777287508967
  RHF Two-electron energy              93.965689611490
  RHF Kinetic energy                  152.493960255077
  RHF Nuclear energy                   36.716387378381
  RHF Virial quotient                  -0.997385144072

 !RHF STATE 1.1 Dipole moment          -0.25090872    -0.51135357     1.63703862
 Dipole moment /Debye                  -0.63774635    -1.29973113     4.16093713

 Orbital energies:

           1.1          2.1          3.1          4.1          5.1          6.1          7.1          8.1          9.1         10.1
    -20.559673   -20.507767    -1.388547    -1.337674    -0.761402    -0.712154    -0.605558    -0.546585    -0.526639    -0.476953

          11.1         12.1
      0.134739     0.192871


 HOMO     10.1    -0.476953 =     -12.9786eV
 LUMO     11.1     0.134739 =       3.6664eV
 LUMO-HOMO         0.611692 =      16.6450eV

 Orbitals saved in record  2100.2


 **********************************************************************************************************************************
 DATASETS  * FILE   NREC   LENGTH (MB)   RECORD NAMES
              1      19       33.05       500      610      700      900      950      970     1000      129      960     1100   
                                          VAR    BASINP    GEOM    SYMINP    ZMAT    AOBASIS   BASIS     P2S    ABASIS      S 
                                         1400     1410     1200     1210     1080     1600     1650     1300     1700   
                                           T        V       H0       H01     AOSYM     SMH    MOLCAS    ERIS     OPER   

              2       4        0.52       700     1000      520     2100   
                                         GEOM     BASIS   MCVARS     RHF  

 PROGRAMS   *        TOTAL    HF-SCF       INT
 CPU TIMES  *         0.48      0.13      0.25
 REAL TIME  *         0.56 SEC
 DISK USED  *        50.78 MB
 **********************************************************************************************************************************


 PROGRAM * OPT (Geometry optimization)     Authors: F. Eckert and H.-J. Werner


 BFGS update of hessian

 *** Long output written to logfile /home/lme/Theoretische_Chemie/Nomodeco/deuterium_calculations/h2o_dimer_deuterium/Water_dimer_H5.molpro/run/Water_dimer_H5_1.molpro/Water_dimer_H5_1.log ***


 Geometry optimization using default procedure for command HF-SCF

 Geometry written to block  1 of record 700

 PQS Optimization using delocalized internal coordinates

 Point group c1. Number of degrees of freedom:   12

 ITER.   ENERGY(OLD)    ENERGY(NEW)      DE          GRADMAX     GRADNORM    GRADRMS     STEPMAX     STEPLEN     STEPRMS   CPU-time
   1  -152.09521052  -152.09971843    -0.00450792  0.04450887  0.07840469  0.02263348  0.06493512  0.12504928  0.03609862      0.58
   2  -152.09971843  -152.09989871    -0.00018028  0.00255645  0.00593123  0.00171220  0.04944551  0.06641901  0.01917352      1.15
   3  -152.09989871  -152.10015318    -0.00025446  0.00269630  0.00372799  0.00107618  0.14874813  0.19276051  0.05564517      1.72
   4  -152.10015318  -152.10046628    -0.00031311  0.00311269  0.00472875  0.00136507  0.29055584  0.40218701  0.11610139      2.31
   5  -152.10046628  -152.10095696    -0.00049067  0.00514776  0.00821712  0.00237208  0.26883013  0.35817433  0.10339602      2.89
   6  -152.10095696  -152.10176344    -0.00080648  0.00456861  0.00732461  0.00211443  0.34814460  0.50000000  0.14433757      3.47
   7  -152.10176344  -152.10229502    -0.00053158  0.00222309  0.00409451  0.00118198  0.32727446  0.50000000  0.14433757      4.05
   8  -152.10229502  -152.10241525    -0.00012023  0.00109914  0.00184023  0.00053123  0.31226292  0.43062921  0.12431194      4.64
   9  -152.10241525  -152.10259107    -0.00017582  0.00127383  0.00191982  0.00055420  0.23292390  0.46632906  0.13461761      5.23
  10  -152.10259107  -152.10268032    -0.00008925  0.00137554  0.00198114  0.00057191  0.24988954  0.43015730  0.12417572      5.82
  11  -152.10268032  -152.10283344    -0.00015313  0.00129151  0.00199838  0.00057688  0.28125541  0.43391586  0.12526072      6.43
  12  -152.10283344  -152.10287960    -0.00004616  0.00091091  0.00188514  0.00054419  0.15165049  0.24088947  0.06953880      7.03
  13  -152.10287960  -152.10289558    -0.00001598  0.00082916  0.00124404  0.00035912  0.04753107  0.07304283  0.02108565      7.62
  14  -152.10289558  -152.10289872    -0.00000314  0.00039729  0.00064963  0.00018753  0.03966089  0.05064667  0.01462043      8.23
  15  -152.10289872  -152.10289952    -0.00000080  0.00036602  0.00053974  0.00015581  0.06581802  0.08169337  0.02358285      8.79
  16  -152.10289952  -152.10289957    -0.00000004  0.00036201  0.00051903  0.00014983  0.10074882  0.12487158  0.03604732      9.36
  17  -152.10289957  -152.10290207    -0.00000250  0.00030990  0.00049895  0.00014404  0.02132675  0.02508094  0.00724025      9.97
  18  -152.10290207  -152.10290583    -0.00000376  0.00027726  0.00042654  0.00012313  0.05241335  0.06278255  0.01812376     10.55
  19  -152.10290583  -152.10290712    -0.00000129  0.00021647  0.00036127  0.00010429  0.00692693  0.01121813  0.00323840     11.13
  20  -152.10290712  -152.10291031    -0.00000319  0.00018284  0.00028108  0.00008114  0.01102798  0.02113352  0.00610072     11.72
  21  -152.10291031  -152.10291197    -0.00000166  0.00010160  0.00018735  0.00005408  0.03086518  0.03429671  0.00990061     12.32
  22  -152.10291197  -152.10291268    -0.00000070  0.00012371  0.00020133  0.00005812  0.02990374  0.03299184  0.00952393     12.92

 END OF GEOMETRY OPTIMIZATION.

 Geometry written to block  1 of record 700

 Recomputing wavefunction for reoriented structure

 Current geometry (xyz format, in Angstrom)

    6
 HF-SCF000/6-311G(D,P)  ENERGY=-152.10291268
 O          0.0295880454        0.0581362284       -1.5789330496
 H          0.0016260762        0.0163806287       -0.6351943797
 H         -0.3059101539       -0.7696809815       -1.8730037295
 O         -0.0683815314       -0.0531402182        1.3965026247
 H         -0.6224856407        0.6029394008        1.7830289882
 H          0.7719964099        0.0355618925        1.8121669830

 **********************************************************************************************************************************


 **********************************************************************************************************************************
 DATASETS  * FILE   NREC   LENGTH (MB)   RECORD NAMES
              1      19       33.19       500      610      700      900      950      970     1000      129      960     1100   
                                          VAR    BASINP    GEOM    SYMINP    ZMAT    AOBASIS   BASIS     P2S    ABASIS      S 
                                         1400     1410     1200     1210     1080     1600     1650     1300     1700   
                                           T        V       H0       H01     AOSYM     SMH    MOLCAS    ERIS     OPER   

              2       4        0.52       700     1000      520     2100   
                                         GEOM     BASIS   MCVARS     RHF  

 PROGRAMS   *        TOTAL      OPTG    HF-SCF       INT
 CPU TIMES  *        13.72     13.24      0.13      0.25
 REAL TIME  *        15.08 SEC
 DISK USED  *        51.72 MB
 **********************************************************************************************************************************


 PROGRAM * HESSIAN

 PROGRAM * MCKINLEY (Hessian of the energy)     Author: A. Bernhardsson, R. Lindh

 Orbitals from record         2100.2

 Number of closed-shell orbitals: 10 ( 10 )
 Number of occupied orbitals:     10 ( 10 )

 Number of electrons= 20     Singlet     Space symmetry=1      Wavefunction type: CLOSED          


 McKinley needed      2.36 seconds of CPU time

 Entering CPHF calculation

 CPHF needed 145 iterations for 18 perturbations.  Total CPU time:    1.87 sec


 HF-SCF hessian saved to record  5300.2

 PROGRAM * FREQUENCIES (Calculation of harmonic vibrational spectra for HF-SCF)


 Permanent Dipole Moment [debye]
     1-   3    0.000000    0.000000    0.000000

 Dipole Moment Norm    0.0000000 [debye]

 Dipole Moment Derivatives [debye/ang]
              1             2             3             4             5             6             7             8
    1    0.00000000    0.00000000    0.00000000    0.00000000    0.00000000    0.00000000    0.00000000    0.00000000
    2    0.00000000    0.00000000    0.00000000    0.00000000    0.00000000    0.00000000    0.00000000    0.00000000
    3    0.00000000    0.00000000    0.00000000    0.00000000    0.00000000    0.00000000    0.00000000    0.00000000
              9            10            11            12            13            14            15            16
    1    0.00000000    0.00000000    0.00000000    0.00000000    0.00000000    0.00000000    0.00000000    0.00000000
    2    0.00000000    0.00000000    0.00000000    0.00000000    0.00000000    0.00000000    0.00000000    0.00000000
    3    0.00000000    0.00000000    0.00000000    0.00000000    0.00000000    0.00000000    0.00000000    0.00000000
             17            18
    1    0.00000000    0.00000000
    2    0.00000000    0.00000000
    3    0.00000000    0.00000000

 Projecting out rotations and translations

 Force Constants (Second Derivatives of the Energy) in [a.u.]
                             O1X1        O1Y1        O1Z1        H2X2        H2Y2    
           O1X1          0.0925748
           O1Y1          0.2162962   0.5361549
           O1Z1          0.0394892   0.1161780   0.7031860
           H2X2         -0.0147376  -0.0190525   0.0323614   0.0189322
           H2Y2         -0.0196863  -0.0529444   0.0625915   0.0186430   0.0564279
           H2Z2          0.0086534   0.0047579  -0.5926162  -0.0107380  -0.0095815
           H3X3         -0.0808352  -0.1971333  -0.0719839   0.0009645   0.0004188
           H3Y3         -0.1964799  -0.4859511  -0.1787182  -0.0002326   0.0003990
           H3Z3         -0.0481892  -0.1205859  -0.1039277  -0.0214574  -0.0528185
           O4X4          0.0045043  -0.0002564   0.0001402  -0.0069142   0.0007027
           O4Y4         -0.0003031   0.0038285  -0.0000879   0.0007994  -0.0052667
           O4Z4         -0.0006021  -0.0020517  -0.0065872   0.0011794   0.0032528
           H5X5         -0.0007453   0.0000740  -0.0009673   0.0007417  -0.0000022
           H5Y5         -0.0000105  -0.0005161   0.0004097  -0.0001435   0.0007420
           H5Z5         -0.0012283   0.0014824  -0.0000632   0.0024697  -0.0030004
           H6X6         -0.0007610   0.0000720   0.0009603   0.0010135  -0.0000761
           H6Y6          0.0001837  -0.0005718  -0.0003731  -0.0000139   0.0006422
           H6Z6          0.0018770   0.0002193   0.0000082  -0.0038151  -0.0004440
                             H2Z2        H3X3        H3Y3        H3Z3        O4X4    
           H2Z2          0.6101627
           H3X3          0.0025138   0.0802196
           H3Y3          0.0057219   0.1966789   0.4858042
           H3Z3         -0.0148240   0.0692701   0.1725177   0.1193021
           O4X4         -0.0007310  -0.0007163   0.0001624   0.0004301   0.7308512
           O4Y4         -0.0014935   0.0001614  -0.0003489   0.0010141  -0.1944659
           O4Z4         -0.0019314   0.0002467   0.0006105  -0.0007886   0.1088776
           H5X5          0.0020537   0.0002584  -0.0000553   0.0000543  -0.2366105
           H5Y5         -0.0004811   0.0000882  -0.0000291  -0.0000957   0.2589945
           H5Z5         -0.0002880   0.0001461  -0.0001349   0.0001197   0.1442147
           H6X6         -0.0017519   0.0001090  -0.0000735  -0.0001079  -0.4911145
           H6Y6          0.0010761  -0.0002141   0.0001258  -0.0000316  -0.0651373
           H6Z6         -0.0005031  -0.0001929   0.0000030   0.0001184  -0.2529315
                             O4Y4        O4Z4        H5X5        H5Y5        H5Z5    
           O4Y4          0.3466829
           O4Z4          0.2403249   0.2825900
           H5X5          0.2140016   0.1031152   0.2628469
           H5Y5         -0.3071181  -0.1808680  -0.2507870   0.3035327
           H5Z5         -0.1971444  -0.1292517  -0.1276674   0.1810368   0.1200462
           H6X6         -0.0201935  -0.2128167  -0.0264912  -0.0081417  -0.0179348
           H6Y6         -0.0377777  -0.0612685   0.0367689   0.0033885   0.0177604
           H6Z6         -0.0426132  -0.1440311   0.0234115  -0.0000017   0.0094369
                             H6X6        H6Y6        H6Z6    
           H6X6          0.5172442
           H6Y6          0.0284128   0.0341930
           H6Z6          0.2316509   0.0428366   0.1349708


 Atomic Masses
     1-   6   15.999400    1.007940    1.007940   15.999400    1.007940    2.014000

 Mass weighted Second Derivative Matrix
                             O1X1        O1Y1        O1Z1        H2X2        H2Y2    
           O1X1          0.0057861
           O1Y1          0.0135190   0.0335109
           O1Z1          0.0024682   0.0072614   0.0439508
           H2X2         -0.0036699  -0.0047444   0.0080586   0.0187831
           H2Y2         -0.0049022  -0.0131841   0.0155864   0.0184962   0.0559833
           H2Z2          0.0021548   0.0011848  -0.1475721  -0.0106534  -0.0095060
           H3X3         -0.0201294  -0.0490897  -0.0179253   0.0009569   0.0004155
           H3Y3         -0.0489271  -0.1210106  -0.0445041  -0.0002307   0.0003959
           H3Z3         -0.0120000  -0.0300281  -0.0258799  -0.0212884  -0.0524024
           O4X4          0.0002815  -0.0000160   0.0000088  -0.0017218   0.0001750
           O4Y4         -0.0000189   0.0002393  -0.0000055   0.0001991  -0.0013115
           O4Z4         -0.0000376  -0.0001282  -0.0004117   0.0002937   0.0008100
           H5X5         -0.0001856   0.0000184  -0.0002409   0.0007358  -0.0000022
           H5Y5         -0.0000026  -0.0001285   0.0001020  -0.0001423   0.0007362
           H5Z5         -0.0003059   0.0003691  -0.0000157   0.0024502  -0.0029767
           H6X6         -0.0001341   0.0000127   0.0001692   0.0007113  -0.0000534
           H6Y6          0.0000324  -0.0001007  -0.0000657  -0.0000098   0.0004507
           H6Z6          0.0003307   0.0000386   0.0000014  -0.0026777  -0.0003116
                             H2Z2        H3X3        H3Y3        H3Z3        O4X4    
           H2Z2          0.6053562
           H3X3          0.0024940   0.0795877
           H3Y3          0.0056768   0.1951296   0.4819773
           H3Z3         -0.0147072   0.0687244   0.1711587   0.1183623
           O4X4         -0.0001820  -0.0001784   0.0000404   0.0001071   0.0456799
           O4Y4         -0.0003719   0.0000402  -0.0000869   0.0002525  -0.0121546
           O4Z4         -0.0004810   0.0000614   0.0001520  -0.0001964   0.0068051
           H5X5          0.0020375   0.0002564  -0.0000549   0.0000539  -0.0589203
           H5Y5         -0.0004773   0.0000875  -0.0000289  -0.0000950   0.0644943
           H5Z5         -0.0002857   0.0001450  -0.0001339   0.0001188   0.0359121
           H6X6         -0.0012296   0.0000765  -0.0000516  -0.0000757  -0.0865169
           H6Y6          0.0007553  -0.0001503   0.0000883  -0.0000222  -0.0114749
           H6Z6         -0.0003531  -0.0001354   0.0000021   0.0000831  -0.0445576
                             O4Y4        O4Z4        H5X5        H5Y5        H5Z5    
           O4Y4          0.0216685
           O4Z4          0.0150209   0.0176625
           H5X5          0.0532903   0.0256775   0.2607763
           H5Y5         -0.0764779  -0.0450394  -0.2488114   0.3011417
           H5Z5         -0.0490925  -0.0321860  -0.1266617   0.1796107   0.1191005
           H6X6         -0.0035574  -0.0374908  -0.0185932  -0.0057144  -0.0125878
           H6Y6         -0.0066551  -0.0107933   0.0258068   0.0023783   0.0124654
           H6Z6         -0.0075069  -0.0253732   0.0164317  -0.0000012   0.0066234
                             H6X6        H6Y6        H6Z6    
           H6X6          0.2568243
           H6Y6          0.0141076   0.0169776
           H6Z6          0.1150203   0.0212694   0.0670163


 Mass Weighted 2nd Derivative Matrix Eigenvalues
     1-  10    0.000000    0.000000    0.000000    0.000000    0.000000    0.000000    0.000367    0.000548    0.000755    0.001093
    11-  18    0.004044    0.013301    0.089083    0.119779    0.349892    0.636064    0.663141    0.672079

 Mass Weighted 2nd Derivative Matrix Eigenvectors
              1             2             3             4             5             6             7             8
    1    0.01703416   -0.00055016   -0.00507928   -0.00216427    0.03973189    0.95372508   -0.10247861    0.12446157
    2   -0.16963515    0.11424577    0.18211534    0.17914139    0.89009107   -0.04277089    0.01248858   -0.00190727
    3   -0.03462095   -0.02812112    0.29368576    0.56534019   -0.15674022    0.01902622   -0.12039027    0.15046482
    4    0.03758300   -0.03371349    0.04689386   -0.02386123    0.01374960    0.16278240    0.34171166    0.03136702
    5   -0.00211785    0.08292088    0.04965014    0.02263027    0.14851364   -0.00592577   -0.03668344   -0.30034982
    6   -0.00591269   -0.00565297    0.07531525    0.14021867   -0.04254286    0.00271877   -0.02109338    0.02458960
    7   -0.36145010   -0.03469120    0.27098823   -0.17746229   -0.03836073    0.20016219   -0.21377551   -0.47302466
    8    0.09028396    0.03020005   -0.07311886    0.12732285    0.26605049    0.01359182    0.04384561    0.30454484
    9    0.03454881    0.02806991    0.09760209    0.11189693   -0.10423684   -0.01896282    0.06941016   -0.24472081
   10    0.46971893   -0.41795442    0.57225145   -0.27728914    0.09172865   -0.00235386    0.21947130   -0.03016733
   11    0.35510934    0.79773325    0.21825329   -0.09283181   -0.04849250    0.02057539   -0.00258936   -0.20927628
   12   -0.00009120   -0.01630331    0.31404653    0.54611004   -0.19012966   -0.01008471   -0.06258472    0.07793811
   13    0.41603571   -0.08261604   -0.06663447    0.06831304    0.06232456    0.01854499   -0.18641385   -0.02207833
   14    0.33503476    0.25149648   -0.12900501    0.08642147   -0.01241246    0.04784868   -0.01456656    0.15763551
   15    0.00998202   -0.05916340    0.08934926    0.14853460    0.00902757   -0.04755042   -0.33772748   -0.35613351
   16    0.25136737   -0.16108754    0.18130132   -0.07973800    0.04338645   -0.03716646   -0.28837772    0.06229304
   17   -0.35820919    0.25227554    0.49169388   -0.31087029   -0.13143253   -0.08013997   -0.02266308    0.48074158
   18   -0.06797562    0.02665623    0.06695483    0.21537631   -0.06500026    0.08853515    0.72045959   -0.23608886
              9            10            11            12            13            14            15            16
    1   -0.18022428    0.01728432    0.00210247   -0.12394992   -0.00364250   -0.08561885   -0.00008289    0.03924042
    2    0.09899853    0.01293579    0.03654746    0.04967155   -0.00365784   -0.20531342    0.00014750    0.09075346
    3    0.11900679   -0.64625197   -0.12241575    0.00017507    0.00728583    0.14332993   -0.00114284   -0.18246127
    4   -0.00766754   -0.03844407    0.26784705    0.83849801    0.01473400    0.27055573   -0.00040855   -0.01356051
    5   -0.24762942   -0.04333562    0.49944822   -0.35215595    0.00358006    0.66244289   -0.00110152   -0.00854295
    6    0.01902649   -0.16435771   -0.00210700    0.00965079   -0.00114657    0.04227103    0.00369907    0.88641847
    7    0.56470205    0.02546107   -0.06402828    0.06563143    0.00327579    0.08136085    0.00013353   -0.14226814
    8   -0.13960225    0.01500708   -0.18079781   -0.02322580    0.00343190    0.18205353   -0.00006634   -0.35187732
    9   -0.20216299   -0.22015260    0.57132705   -0.00957320   -0.01287906   -0.61296571   -0.00005099   -0.15603792
   10   -0.01514970   -0.04419023   -0.10382044   -0.13398723   -0.07307107   -0.00307334   -0.28677570    0.00845861
   11   -0.07642791   -0.04500687   -0.23214197    0.08404963   -0.19560092   -0.00692754   -0.03405469   -0.00898998
   12    0.03340494    0.67931937    0.12378226    0.01805470   -0.22149899    0.00828019   -0.14621288   -0.00507837
   13    0.22875535    0.05191295    0.10876332    0.01764759    0.59814925   -0.00754046   -0.05637575   -0.02742754
   14    0.45891981    0.07370228    0.23970523   -0.07837510    0.21321029    0.00395640    0.03245049    0.03423322
   15   -0.46734318    0.11656728   -0.27778516    0.24372474    0.45190371   -0.01693405    0.00856495    0.02002385
   16   -0.00522989    0.04829454    0.06556275    0.07490375   -0.21967432    0.00635697    0.84859535   -0.00479882
   17   -0.11433071    0.05829415    0.15628701   -0.05589243    0.40582278   -0.00201994    0.07343783    0.00030417
   18    0.03059671    0.09635141   -0.21002329   -0.22385581    0.29399440   -0.01160697    0.40668605   -0.00227819
             17            18
    1   -0.00768690   -0.07366169
    2   -0.01901108   -0.18473627
    3   -0.00446479   -0.17142632
    4   -0.00049622   -0.01688576
    5   -0.00279432   -0.03015338
    6   -0.01366047    0.39564298
    7    0.03142116    0.31053582
    8    0.07782589    0.76666199
    9    0.03039981    0.28815329
   10    0.15525736   -0.01186423
   11   -0.16176444    0.01231142
   12   -0.08837659    0.00686399
   13   -0.58344626    0.04660388
   14    0.66547906   -0.05180043
   15    0.38559230   -0.02995648
   16   -0.02505735    0.00034893
   17   -0.01434382    0.00159629
   18   -0.02294830    0.00127299

   Low Vibration      Wavenumber
        Nr             [1/cm] 
        1                0.00
        2                0.00
        3                0.00
        4                0.00
        5                0.00
        6                0.00

     Vibration        Wavenumber
        Nr             [1/cm] 
        1               98.52
        2              120.30
        3              141.29
        4              169.93
        5              326.89
        6              592.86
        7             1534.27
        8             1779.07
        9             3040.68
       10             4099.72
       11             4186.08
       12             4214.19

 FREQUENCIES * CALCULATION OF NORMAL MODES FOR HF-SCF


 Atomic Coordinates

  Nr  Atom  Charge       X              Y              Z

   1   O1    8.00    0.055913302    0.109861550   -2.983751033
   2   H2    1.00    0.003072839    0.030954902   -1.200343413
   3   H3    1.00   -0.578086410   -1.454486258   -3.539464079
   4   O4    8.00   -0.129222366   -0.100420459    2.639007493
   5   H5    1.00   -1.176327377    1.139390337    3.369436460
   6   H6    1.00    1.458861784    0.067202237    3.424499290

 Gradient norm at reference geometry: 0.37928D-03

 Normal Modes

                              1 A         2 A         3 A         4 A         5 A  
 Wavenumbers [cm-1]           98.52      120.30      141.29      169.93      326.89
 Intensities [km/mol]          0.00        0.00        0.00        0.00        0.00
 Intensities [relative]        0.00        0.00        0.00        0.00        0.00
           O1X1            -0.02562     0.03112    -0.04506     0.00432     0.00053
           O1Y1             0.00312    -0.00048     0.02475     0.00323     0.00914
           O1Z1            -0.03010     0.03762     0.02975    -0.16157    -0.03060
           H2X2             0.34036     0.03124    -0.00764    -0.03829     0.26679
           H2Y2            -0.03654    -0.29916    -0.24665    -0.04316     0.49748
           H2Z2            -0.02101     0.02449     0.01895    -0.16371    -0.00210
           H3X3            -0.21293    -0.47116     0.56247     0.02536    -0.06378
           H3Y3             0.04367     0.30334    -0.13905     0.01495    -0.18008
           H3Z3             0.06914    -0.24376    -0.20137    -0.21928     0.56907
           O4X4             0.05487    -0.00754    -0.00379    -0.01105    -0.02596
           O4Y4            -0.00065    -0.05232    -0.01911    -0.01125    -0.05804
           O4Z4            -0.01565     0.01948     0.00835     0.16983     0.03095
           H5X5            -0.18568    -0.02199     0.22785     0.05171     0.10833
           H5Y5            -0.01451     0.15701     0.45711     0.07341     0.23876
           H5Z5            -0.33639    -0.35473    -0.46550     0.11611    -0.27669
           H6X6            -0.20320     0.04389    -0.00369     0.03403     0.04620
           H6Y6            -0.01597     0.33875    -0.08056     0.04108     0.11013
           H6Z6             0.50767    -0.16636     0.02156     0.06789    -0.14799

                              6 A         7 A         8 A         9 A        10 A  
 Wavenumbers [cm-1]          592.86     1534.27     1779.07     3040.68     4099.72
 Intensities [km/mol]          0.00        0.00        0.00        0.00        0.00
 Intensities [relative]        0.00        0.00        0.00        0.00        0.00
           O1X1            -0.03099    -0.00091    -0.02141    -0.00002     0.00981
           O1Y1             0.01242    -0.00091    -0.05133     0.00004     0.02269
           O1Z1             0.00004     0.00182     0.03583    -0.00029    -0.04562
           H2X2             0.83519     0.01468     0.26949    -0.00041    -0.01351
           H2Y2            -0.35077     0.00357     0.65983    -0.00110    -0.00851
           H2Z2             0.00961    -0.00114     0.04210     0.00368     0.88292
           H3X3             0.06537     0.00326     0.08104     0.00013    -0.14171
           H3Y3            -0.02313     0.00342     0.18134    -0.00007    -0.35049
           H3Z3            -0.00954    -0.01283    -0.61055    -0.00005    -0.15542
           O4X4            -0.03350    -0.01827    -0.00077    -0.07170     0.00211
           O4Y4             0.02101    -0.04890    -0.00173    -0.00851    -0.00225
           O4Z4             0.00451    -0.05538     0.00207    -0.03655    -0.00127
           H5X5             0.01758     0.59579    -0.00751    -0.05615    -0.02732
           H5Y5            -0.07807     0.21237     0.00394     0.03232     0.03410
           H5Z5             0.24276     0.45012    -0.01687     0.00853     0.01994
           H6X6             0.05278    -0.15479     0.00448     0.59796    -0.00338
           H6Y6            -0.03938     0.28596    -0.00142     0.05175     0.00021
           H6Z6            -0.15774     0.20716    -0.00818     0.28657    -0.00161

                             11 A        12 A  
 Wavenumbers [cm-1]         4186.08     4214.19
 Intensities [km/mol]          0.00        0.00
 Intensities [relative]        0.00        0.00
           O1X1            -0.00192    -0.01842
           O1Y1            -0.00475    -0.04618
           O1Z1            -0.00112    -0.04286
           H2X2            -0.00049    -0.01682
           H2Y2            -0.00278    -0.03003
           H2Z2            -0.01361     0.39408
           H3X3             0.03130     0.30931
           H3Y3             0.07752     0.76364
           H3Z3             0.03028     0.28702
           O4X4             0.03882    -0.00297
           O4Y4            -0.04044     0.00308
           O4Z4            -0.02209     0.00172
           H5X5            -0.58114     0.04642
           H5Y5             0.66285    -0.05160
           H5Z5             0.38407    -0.02984
           H6X6            -0.01766     0.00025
           H6Y6            -0.01011     0.00112
           H6Z6            -0.01617     0.00090


 Normal Modes of low/zero frequencies

                                  1           2           3           4           5
 Wavenumbers [cm-1]            0.00        0.00        0.00        0.00        0.00
 Intensities [km/mol]          0.00        0.00        0.00        0.00        0.00
 Intensities [relative]        0.00        0.00        0.00        0.00        0.00
           O1X1             0.00426    -0.00014    -0.00127    -0.00054     0.00993
           O1Y1            -0.04241     0.02856     0.04553     0.04479     0.22253
           O1Z1            -0.00866    -0.00703     0.07342     0.14134    -0.03919
           H2X2             0.03743    -0.03358     0.04671    -0.02377     0.01370
           H2Y2            -0.00211     0.08259     0.04945     0.02254     0.14793
           H2Z2            -0.00589    -0.00563     0.07502     0.13967    -0.04237
           H3X3            -0.36002    -0.03455     0.26992    -0.17676    -0.03821
           H3Y3             0.08993     0.03008    -0.07283     0.12682     0.26500
           H3Z3             0.03441     0.02796     0.09722     0.11146    -0.10383
           O4X4             0.11743    -0.10449     0.14307    -0.06932     0.02293
           O4Y4             0.08878     0.19944     0.05456    -0.02321    -0.01212
           O4Z4            -0.00002    -0.00408     0.07851     0.13653    -0.04753
           H5X5             0.41439    -0.08229    -0.06637     0.06804     0.06208
           H5Y5             0.33371     0.25050    -0.12850     0.08608    -0.01236
           H5Z5             0.00994    -0.05893     0.08900     0.14795     0.00899
           H6X6             0.17712    -0.11351     0.12775    -0.05619     0.03057
           H6Y6            -0.25241     0.17776     0.34647    -0.21905    -0.09261
           H6Z6            -0.04790     0.01878     0.04718     0.15176    -0.04580

                                  6
 Wavenumbers [cm-1]            0.00
 Intensities [km/mol]          0.00
 Intensities [relative]        0.00
           O1X1             0.23844
           O1Y1            -0.01069
           O1Z1             0.00476
           H2X2             0.16214
           H2Y2            -0.00590
           H2Z2             0.00271
           H3X3             0.19937
           H3Y3             0.01354
           H3Z3            -0.01889
           O4X4            -0.00059
           O4Y4             0.00514
           O4Z4            -0.00252
           H5X5             0.01847
           H5Y5             0.04766
           H5Z5            -0.04736
           H6X6            -0.02619
           H6Y6            -0.05647
           H6Z6             0.06239


 Frequencies dumped to record   5400.2
 Frequency information read from record  5400.2

 Zero point energy:  0.04625550 [H]    10151.91 [1/CM]      121.44 [KJ/MOL]


 **********************************************************************************************************************************
 DATASETS  * FILE   NREC   LENGTH (MB)   RECORD NAMES
              1      19       33.19       500      610      700      900      950      970     1000      129      960     1100   
                                          VAR    BASINP    GEOM    SYMINP    ZMAT    AOBASIS   BASIS     P2S    ABASIS      S 
                                         1400     1410     1200     1210     1080     1600     1650     1300     1700   
                                           T        V       H0       H01     AOSYM     SMH    MOLCAS    ERIS     OPER   

              2       7        0.57       700     1000      520     2100     5300     5450     5400   
                                         GEOM     BASIS   MCVARS     RHF     HESS     NMOD     FREQ   

              4       5        1.12      4100     4000     4200     4300     4400   

 PROGRAMS   *        TOTAL      FREQ      OPTG    HF-SCF       INT
 CPU TIMES  *        17.96      4.24     13.24      0.13      0.25
 REAL TIME  *        19.48 SEC
 DISK USED  *        51.72 MB
 **********************************************************************************************************************************

 Dump information in style MOLDEN to water_dimer_h5.molden                                                           

 Molecular orbitals read from record     2100.2  Type=RHF/CANONICAL  
 Occupation numbers read from record     2100.2  Type=RHF/RHF  
 Orbital energies read from record       2100.2  Type=RHF/CANONICAL  
 Redundancy group numbers read from rec  2100.2  Type=RHF/RHF  

 DUMP ORBITAL  1.1 AS ORBITAL    1  occ=    2.0000  eig=  -20.5725  GROUP=   2
 DUMP ORBITAL  2.1 AS ORBITAL    2  occ=    2.0000  eig=  -20.5082  GROUP=   2
 DUMP ORBITAL  3.1 AS ORBITAL    3  occ=    2.0000  eig=   -1.3786  GROUP=   2
 DUMP ORBITAL  4.1 AS ORBITAL    4  occ=    2.0000  eig=   -1.3175  GROUP=   2
 DUMP ORBITAL  5.1 AS ORBITAL    5  occ=    2.0000  eig=   -0.7471  GROUP=   2
 DUMP ORBITAL  6.1 AS ORBITAL    6  occ=    2.0000  eig=   -0.6906  GROUP=   2
 DUMP ORBITAL  7.1 AS ORBITAL    7  occ=    2.0000  eig=   -0.6048  GROUP=   2
 DUMP ORBITAL  8.1 AS ORBITAL    8  occ=    2.0000  eig=   -0.5466  GROUP=   2
 DUMP ORBITAL  9.1 AS ORBITAL    9  occ=    2.0000  eig=   -0.5247  GROUP=   2
 DUMP ORBITAL 10.1 AS ORBITAL   10  occ=    2.0000  eig=   -0.4706  GROUP=   2

 Total charge:      20.000000
 Frequency information read from record  5400.2

 **********************************************************************************************************************************

 HF/6-311G(D,P)//HF/6-311G(D,P) energy=   -152.102912677838

    OPTG(HF-SCF)          HF-SCF
   -152.10291268   -152.09521052
 **********************************************************************************************************************************
 Molpro calculation terminated
