[Molden Format]
[Molpro variables]
_NUMVAR=  1082.000000000000    
_AVOGAD= 0.6022140760000000E+24
_BOLTZ= 0.1380649000000000E-22
_CLIGHTSI=  299792458.0000000    
_JOULE= 0.4359744722207100E-17
_JPCAL=  4.184000000000000    
_PLANCK= 0.6626070150000000E-33
_BOHR= 0.5291772109030000E-10
_ECHARG= 0.1602176634000000E-18
_ENULL= 0.8854187812800001E-11
_MU= 0.1660539066600000E-26
_EMASS= 0.9109383701500001E-30
_AMU2AU=  1822.888486217313    
_CLIGHT=  29979245800.00000    
_EV= 0.3674932217565494E-01
_KJOULE= 0.3808798847133432E-03
_KJOULE/MOL= 0.3808798847133432E-03
_CM= 0.4556335252912009E-05
_CM-1= 0.4556335252912009E-05
_DEB2SI= 0.3335640951981520E-29
_KCAL= 0.1593601437640628E-02
_KCAL/MOL= 0.1593601437640628E-02
_KELVIN= 0.3166811563455608E-05
_HERTZ= 0.1519829846057038E-15
_HZ= 0.1519829846057038E-15
_TOA= 0.5291772109030000    
_TOANG= 0.5291772109030000    
_TORAD= 0.1745329251994330E-01
_TOCM=  219474.6313631965    
_TODEBYE=  2.541746473194078    
_TOE= 0.4803204712570263E-09
_TOEV=  27.21138624598803    
_TOHERTZ=  6579683920501656.    
_TOHZ=  6579683920501656.    
_TOK=  315775.0248040668    
_TOKCAL=  627.5094740630558    
_TOKELVIN=  315775.0248040668    
_TOKJ=  2625.499639479825    
_TOKJOULE=  2625.499639479825    
_TOKG= 0.1660539066600000E-26
_ANG=  1.889726124625770    
_ANGSTROM=  1.889726124625770    
_RPAREF=  0.000000000000000    
_RPADISS=  0.000000000000000    
_IGNORE_UNDEF=  2.000000000000000    
_STRICTCHECK=  0.000000000000000    
!SEWARD=  0.000000000000000    
!MULTI=  0.000000000000000    
!DFMULTI=  0.000000000000000    
!NUMHESS=  0.000000000000000    
_SEW_ONEEL=  0.000000000000000    
_CPPDONE=FALSE
_DKROLL_DONE=  0.000000000000000    
_FNUC_DONE=  0.000000000000000    
_FOCKDONE=TRUE
_GRADONE=FALSE
_HESSDONE=TRUE
_INTDONE=TRUE
_SCFDONE=TRUE
_MODUL_BLOCK=FALSE
_MODUL_SLATER=TRUE
_MODUL_MRCC=FALSE
_MODUL_NBO6=FALSE
_MODUL_NECI=FALSE
_MODUL_AIMS=TRUE
_MODUL_HDF5=FALSE
_MODUL_GECCO=FALSE
_ISWINDOWS=FALSE
_MRCC_EXEC=
_FITC_AO_SAVED=FALSE
_FITC_MO_SAVED=FALSE
_LSTYP=SEWARD
_INTYP=INTS
_GEOMTYP=XYZ
_GRADTYP=ALASKA
_DIRECT=FALSE
_DKHO= -1.000000000000000    
_FNUC=  0.000000000000000    
_SYNCM=  0.000000000000000    
_BASIS=6-311G(D,P)
_ZCENTRE=MASS
_ZORIENT=  1.000000000000000    
_NELEC=  24.00000000000000    
!SPIN=  0.000000000000000    
_OPTCONV= 0.1149018438024662E-02
_QSDSTEP=  0.000000000000000    
_QSDIRC=  0.000000000000000    
_PROGRAM=FREQ
_CPUSTEP=  9.770000000000001    
_SYSSTEP= 0.2700000000000000    
_WALLSTEP=  10.04000000000000    
!DFSCF=  0.000000000000000    
!SCSGRD=  0.000000000000000    
_NCEN=  7.000000000000000    
_CPUTOT=  16.56000000000000    
_DFTEXFAC=  1.000000000000000    
_DMX= 0.5034153238678074    
_DMY=  0.000000000000000    
_DMZ= -1.058251229216864    
_DMX_SCF= 0.5034153238678074    
_DMY_SCF=  0.000000000000000    
_DMZ_SCF= -1.058251229216864    
_FREQUENCIES= 0.6296193264472016E-04
_HOMO=  10.10000000000000    
_EHOMO=-0.4204252403522307    
_LUMO=  11.10000000000000    
_ELUMO= 0.1552551417677581    
_ENERGY= -152.9579155806466    
_ENERGY_METHOD=HF
_ENERGY_BASIS=6-311G(D,P)
_GEOMETRY_METHOD=HF
_GEOMETRY_BASIS=6-311G(D,P)
_ENUC=  70.43845121054238    
_GRADENERG= -152.9579154297759    
_GRADEXFAC=  9999.000000000000    
_GRADMETHOD=  1.000000000000000    
_NMRMETHOD=  0.000000000000000    
_NMRMAGNET=  0.000000000000000    
_VIRIAL= 0.5838402210912614E-03
!GRID_FREEZE= -1.000000000000000    
!NEESE_INDEX=  0.000000000000000    
_ITERATIONS=  10.00000000000000    
_LASTNELEC=  24.00000000000000    
_LASTSPIN=  0.000000000000000    
_LASTSYM=  1.000000000000000    
_MPP_PROG=  0.000000000000000    
_MSNSTATES=  0.000000000000000    
_RS2PHASE=  0.000000000000000    
_NPROC_MPP=  1.000000000000000    
_NPROC_SMP=  6.000000000000000    
_NUMSTEP=  0.000000000000000    
_OPTCONVMX= 0.8519477578822997E-03
_OPTCONVRMS= 0.3633515337686955E-03
_OPTGRAD= 0.2792127840415156E-03
_OPTGRADMX= 0.1469364777395151E-03
_OPTGRADRMS= 0.8829483494079031E-04
!GMAXLAST= 0.1469364777395151E-03
!DMAXLAST= 0.8519477578822997E-03
!DELAST= 0.2935468131681773E-05
_OPTSTEP=  4.000000000000000    
_ORBITAL=  2100.200000000000    
_PI=  3.141592653589793    
_SEIG_MIN= 0.3570741166902930E-02
_SEWPROP=TRUE
_STATUS=  1.000000000000000    
_SYSTOT= 0.7200000000000000    
_VERSION=  2024001.000000000    
_WALLTOT=  17.28000000000000    
_ZPE= 0.5915702333480855E-01
_DATE=18-Sep-24
_LASTORB=0
_OUTPUT=/home/lme/Theoretische_Chemie/Nomodeco/pymolpro_integration/water_dimer/CH3CHO.molpro/run/CH3CHO_1.molpro/CH3CHO_1.out
_PGROUP=Cs
_TIME=13:48:52
_LIBMOL=/usr/local/molpro/molpro_2024.1.0_sockets/lib/
_VIGRDC=  0.000000000000000    
!VIBCNT=  0.000000000000000    
!SURFREC=  0.000000000000000    
!XSURFREC=  0.000000000000000    
!XPOLYREC=  0.000000000000000    
!ROTREC=  0.000000000000000    
!POLYREC=  0.000000000000000    
!DIPREC=  0.000000000000000    
!DIP4DREC=  0.000000000000000    
!DIPROT=  0.000000000000000    
!DIP4DROT=  0.000000000000000    
!PTREC=  0.000000000000000    
!PT4DREC=  0.000000000000000    
!VSCFREC=  0.000000000000000    
!VCIREC=  0.000000000000000    
!PVCIREC=  0.000000000000000    
!VMP2REC=  0.000000000000000    
!VMCSCFREC=  0.000000000000000    
!VMRCIREC=  0.000000000000000    
!VIBSTATEREC=  0.000000000000000    
!VIBSTATECNT=  0.000000000000000    
!VIBINFO=  0.000000000000000    
!GAREC=  0.000000000000000    
!SCFORB=  21002.00000000000    
!DEFCORE=  3.000000000000000    
!SCORE=  0.000000000000000    
!NEWMOL=  0.000000000000000    
!NEWSYM=  0.000000000000000    
_SLFILES=slscratch
_NGSSTO=  9.000000000000000    
_SIN=SIN
_COS=COS
_TAN=TAN
_ACOS=ACOS
_ASIN=ASIN
_ATAN=ATAN
_COSH=COSH
_SINH=SINH
_TANH=TANH
_ABS=ABS
_MOD=MOD
_ERF=ERF
_REFC=REFC
_ERFC=ERFC
_HYPOT=HYPOT
_J0=J0
_J1=J1
_JN=JN
_GAMMA=GAMMA
_LGAMMA=LGAMMA
_Y0=Y0
_Y1=Y1
_YN=YN
_EXP=EXP
_LOG=LOG
_LOG10=LOG10
_SQRT=SQRT
_INT=INT
_NINT=NINT
_MAX=MAX
_MIN=MIN
_COSMO=  0.000000000000000    
_COSMOIT=  0.000000000000000    
_COSMOES=  0.000000000000000    
_COSMOEDS=  0.000000000000000    
_COSMOEC=  0.000000000000000    
_COSMOEDCORR=  0.000000000000000    
_FEPSI=  1.000000000000000    
_SL_IsMM=  0.000000000000000    
_SL_NSYM=  2.000000000000000    
_SL_System_BitSw=  0.000000000000000    
_SL_Unique_atoms=  0.000000000000000    
_SL_GRAD=  0.000000000000000    
_SL_MAXUPD_Hess=  5.000000000000000    
_SL_N_PRINT_COD=  5.000000000000000    
_SL_PRINT_CODES=  0.000000000000000    
_SL_BasType=  0.000000000000000    
_SL_Energy_Pred=  0.000000000000000    
_SL_New_Coords=  0.000000000000000    
_SL_Total_Nuclea=  0.000000000000000    
_SL_Highest_Mltp=  0.000000000000000    
_SL_Ref_Geom=  0.000000000000000    
_SL_Symmetry_ope=  1.000000000000000    
_SL_agrad=  0.000000000000000    
_SL_GrdMax=  0.000000000000000    
_SL_GrdNorm=  0.000000000000000    
_SL_GrdRMS=  0.000000000000000    
_SL_Hss_Q=  0.000000000000000    
_SL_Hss_X=  0.000000000000000    
_SL_BMxOld=  0.000000000000000    
_SL_KtB=  0.000000000000000    
_SL_TROld=  0.000000000000000    
_SL_No_of_Intern=  0.000000000000000    
_SL_Hess=  0.000000000000000    
_SL_K=  0.000000000000000    
!LATTICE= -1.000000000000000    
!NEWLATTICE=  0.000000000000000    
!LATGRAD_VAR=FALSE
!SEW_LATTICE=  1.000000000000000    
!AIC_ONEEL=  0.000000000000000    
!LOCAL=  0.000000000000000    
!SAVEDOM= -1.000000000000000    
!RESTDOM= -1.000000000000000    
!SAVEDOM_HF= -1.000000000000000    
!RESTDOM_HF= -1.000000000000000    
!HESSREC=  5300.200000000000    
!FREQREC=  5400.200000000000    
!NMODREC=  5450.200000000000    
!GTASKS=  0.000000000000000    
!HTASKS=  0.000000000000000    
!SAVEDOM_EOM= -1.000000000000000    
!RESTDOM_EOM= -1.000000000000000    
!GRADSTATE= -1.000000000000000    
!DEBUG=  0.000000000000000    
!CFIT_CPHF=  0.000000000000000    
!RDOMAUX_CPHF=  0.000000000000000    
!THRAO_CPHF= 0.1000000000000000E-11
!THRMO_CPHF= 0.1000000000000000E-11
!THROV_CPHF= 0.1000000000000000E-13
!THRSW_CPHF= 0.1000000000000000E-11
!THRPROD_CPHF= 0.1000000000000000E-11
!THRAOPR_CPHF= 0.1000000000000000E-11
!CFIT_SCFGRD=  0.000000000000000    
!RDOMAUX_SCFGRD=  0.000000000000000    
!THRAO_SCFGRD= 0.1000000000000000E-11
!THRMO_SCFGRD= 0.1000000000000000E-11
!THROV_SCFGRD= 0.1000000000000000E-13
!THRSW_SCFGRD= 0.1000000000000000E-11
!THRPROD_SCFGRD= 0.1000000000000000E-11
!THRAOPR_SCFGRD= 0.1000000000000000E-11
!LOCFIT_SCF=  0.000000000000000    
!LOCFIT_MP2=  0.000000000000000    
_RIDOM=  0.000000000000000    
!CC2_METHOD=  0.000000000000000    
_BASIS2006=FALSE
_SVDDEL= -1.000000000000000    
_SVDDELA= -1.000000000000000    
_SVDDELP= -1.000000000000000    
_SVDDELF= -1.000000000000000    
_SVDDELS= -1.000000000000000    
_SVDDEL_ABS= -1.000000000000000    
_SVDDELA_ABS= -1.000000000000000    
_SVDDELP_ABS= -1.000000000000000    
_SVDDELF_ABS= -1.000000000000000    
_SVDDELS_ABS= -1.000000000000000    
_MAXBASIS=  0.000000000000000    
!OPT_CONICAL=  0.000000000000000    
!CLEARSP_JGRID=  0.000000000000000    
_GRDHYBR=  0.000000000000000    
_STATEGRAD=  1.000000000000000    
_4EXT_NDISKS=  1.000000000000000    
!EMBEDFLAG=  1.000000000000000    
!EMBED=FALSE
!EMBED_F12=FALSE
!EMBEDNUC=  0.000000000000000    
_EMBEDENERGY=  0.000000000000000    
!EMBED_DFC=FALSE
!NUM_VOIDS=  0.000000000000000    
_IBODY=  0.000000000000000    
_EMBE_CORR=  0.000000000000000    
!EMBED_PROJ=FALSE
!EMB_PROJ_ZMU=  1000000.000000000    
!CORRECTION_HF=  0.000000000000000    
!EMBED_AORB=  0.000000000000000    
!EMBED_NACORR=  0.000000000000000    
!EMBED_MP2=FALSE
!EMBED_TRUNC_PERTURBATION=FALSE
!EMBED_FROZEN=  0.000000000000000    
!EMBED_ACTIVE=  0.000000000000000    
_CHANGE_BASIS=FALSE
_RESTORE_BASIS=FALSE
_FIX_EMBED_GUESS=FALSE
_EMBED_SCF=FALSE
_NEOBAS=FALSE
_NEOOVE=FALSE
_PRINEO=FALSE
_HUZINAGA_T=FALSE
_HUZINAGA_F=FALSE
_HUZINAGA=FALSE
_HUZINAGA_CORRECT=FALSE
!FASTLATGRAD=  1.000000000000000    
!FASTVLAMBDA= -1.000000000000000    
!IFORCE= -1.000000000000000    
!USESYM= -1.000000000000000    
_SINDEX=  0.000000000000000    
_AVDOM_OSV=  0.000000000000000    
_AVDOM_PNO=  0.000000000000000    
_AVDOM_PNOCC=  0.000000000000000    
_AVDOM_TNO=  0.000000000000000    
_AVDOM_TNOIT=  0.000000000000000    
_AVDOM_PAO=  0.000000000000000    
_AVDOM_LMO=  0.000000000000000    
_CC2OSV_FLAG=  0.000000000000000    
_EOMCCSD_CONV=FALSE
_TMADC2_FLAG=FALSE
_PROPADC2_FLAG=FALSE
_LEN_VirQ=  0.000000000000000    
_GRDCC2LR_FLAG=FALSE
_GRDADC2_FLAG=FALSE
_RO_VGLOBAL=  0.000000000000000    
_OPT=FALSE
_FREQ=FALSE
_HESS=FALSE
_CMRCC_callName=EMPTY
_CMRCC_callCount=  0.000000000000000    
_GECCO_CIROOT=  1.000000000000000    
_SYM_CATION=  1.000000000000000    
_MON_A=FALSE
_MON_B=FALSE
_MAXGEOM=  100.0000000000000    
!MAXGEOM=  100.0000000000000    
_NCORE=  0.000000000000000    
_NLARGECORE=  0.000000000000000    
GX1=-0.2318288256314382    
GY1=  0.000000000000000    
GZ1=  1.127637945465809    
GX2= 0.4128967202647476    
GY2=  0.000000000000000    
GZ2= 0.1371241025355809    
GX3=  1.510187814069388    
GY3=  0.000000000000000    
GZ3= 0.1909387074361201    
GX4=-0.1592343676812340    
GY4=  0.000000000000000    
GZ4= -1.253237566930530    
GX5= -1.240446717869517    
GY5=  0.000000000000000    
GZ5= -1.215331061092333    
GX6= 0.1946176916134999    
GY6= 0.8756726184479553    
GZ6= -1.791331656660410    
GX7= 0.1946176916134999    
GY7=-0.8756726184479553    
GZ7= -1.791331656660410    
OX1=-0.4380929882370412    
OY1=  0.000000000000000    
OZ1=  2.130926884666068    
CX2= 0.7802617190565921    
CY2=  0.000000000000000    
CZ2= 0.2591269988773500    
HX3=  2.853841365338408    
HY3=  0.000000000000000    
HZ3= 0.3608218636443130    
CX4=-0.3009093445454933    
CY4=  0.000000000000000    
CZ4= -2.368275770591060    
HX5= -2.344104568964319    
HY5=  0.000000000000000    
HZ5= -2.296642856215339    
HX6= 0.3677741361563925    
HY6=  1.654781423700555    
HZ6= -3.385126229460338    
HX7= 0.3677741361563925    
HY7= -1.654781423700555    
HZ7= -3.385126229460338    
[Atoms] Angs
O     1    8        -0.2318288256        0.0000000000        1.1276379455
C     2    6         0.4128967203        0.0000000000        0.1371241025
H     3    1         1.5101878141        0.0000000000        0.1909387074
C     4    6        -0.1592343677        0.0000000000       -1.2532375669
H     5    1        -1.2404467179        0.0000000000       -1.2153310611
H     6    1         0.1946176916        0.8756726184       -1.7913316567
H     7    1         0.1946176916       -0.8756726184       -1.7913316567
[GTO]
   1 0
 s    6  1.00
  0.8588500000D+04  0.1895150083D-02
  0.1297230000D+04  0.1438590063D-01
  0.2992960000D+03  0.7073200310D-01
  0.8737710000D+02  0.2400010105D+00
  0.2567890000D+02  0.5947970261D+00
  0.3740040000D+01  0.2808020123D+00
 s    3  1.00
  0.4211750000D+02  0.1138890124D+00
  0.9628370000D+01  0.9208111006D+00
  0.2853320000D+01 -0.3274470358D-02
 s    1  1.00
  0.9056610000D+00  0.1000000000D+01
 s    1  1.00
  0.2556110000D+00  0.1000000000D+01
 p    3  1.00
  0.4211750000D+02  0.3651139738D-01
  0.9628370000D+01  0.2371529830D+00
  0.2853320000D+01  0.8197019412D+00
 p    1  1.00
  0.9056610000D+00  0.1000000000D+01
 p    1  1.00
  0.2556110000D+00  0.1000000000D+01
 d    1  1.00
  0.1292000000D+01  0.1000000000D+01
  
   2 0
 s    6  1.00
  0.4563240000D+04  0.1966650249D-02
  0.6820240000D+03  0.1523060193D-01
  0.1549730000D+03  0.7612690966D-01
  0.4445530000D+02  0.2608010331D+00
  0.1302900000D+02  0.6164620782D+00
  0.1827730000D+01  0.2210060280D+00
 s    3  1.00
  0.2096420000D+02  0.1146600807D+00
  0.4803310000D+01  0.9199996477D+00
  0.1459330000D+01 -0.3030682134D-02
 s    1  1.00
  0.4834560000D+00  0.1000000000D+01
 s    1  1.00
  0.1455850000D+00  0.1000000000D+01
 p    3  1.00
  0.2096420000D+02  0.4024869267D-01
  0.4803310000D+01  0.2375939567D+00
  0.1459330000D+01  0.8158538515D+00
 p    1  1.00
  0.4834560000D+00  0.1000000000D+01
 p    1  1.00
  0.1455850000D+00  0.1000000000D+01
 d    1  1.00
  0.6260000000D+00  0.1000000000D+01
  
   3 0
 s    3  1.00
  0.3386500000D+02  0.2549381454D-01
  0.5094790000D+01  0.1903731086D+00
  0.1158790000D+01  0.8521614860D+00
 s    1  1.00
  0.3258400000D+00  0.1000000000D+01
 s    1  1.00
  0.1027410000D+00  0.1000000000D+01
 p    1  1.00
  0.7500000000D+00  0.1000000000D+01
  
   4 0
 s    6  1.00
  0.4563240000D+04  0.1966650249D-02
  0.6820240000D+03  0.1523060193D-01
  0.1549730000D+03  0.7612690966D-01
  0.4445530000D+02  0.2608010331D+00
  0.1302900000D+02  0.6164620782D+00
  0.1827730000D+01  0.2210060280D+00
 s    3  1.00
  0.2096420000D+02  0.1146600807D+00
  0.4803310000D+01  0.9199996477D+00
  0.1459330000D+01 -0.3030682134D-02
 s    1  1.00
  0.4834560000D+00  0.1000000000D+01
 s    1  1.00
  0.1455850000D+00  0.1000000000D+01
 p    3  1.00
  0.2096420000D+02  0.4024869267D-01
  0.4803310000D+01  0.2375939567D+00
  0.1459330000D+01  0.8158538515D+00
 p    1  1.00
  0.4834560000D+00  0.1000000000D+01
 p    1  1.00
  0.1455850000D+00  0.1000000000D+01
 d    1  1.00
  0.6260000000D+00  0.1000000000D+01
  
   5 0
 s    3  1.00
  0.3386500000D+02  0.2549381454D-01
  0.5094790000D+01  0.1903731086D+00
  0.1158790000D+01  0.8521614860D+00
 s    1  1.00
  0.3258400000D+00  0.1000000000D+01
 s    1  1.00
  0.1027410000D+00  0.1000000000D+01
 p    1  1.00
  0.7500000000D+00  0.1000000000D+01
  
   6 0
 s    3  1.00
  0.3386500000D+02  0.2549381454D-01
  0.5094790000D+01  0.1903731086D+00
  0.1158790000D+01  0.8521614860D+00
 s    1  1.00
  0.3258400000D+00  0.1000000000D+01
 s    1  1.00
  0.1027410000D+00  0.1000000000D+01
 p    1  1.00
  0.7500000000D+00  0.1000000000D+01
  
   7 0
 s    3  1.00
  0.3386500000D+02  0.2549381454D-01
  0.5094790000D+01  0.1903731086D+00
  0.1158790000D+01  0.8521614860D+00
 s    1  1.00
  0.3258400000D+00  0.1000000000D+01
 s    1  1.00
  0.1027410000D+00  0.1000000000D+01
 p    1  1.00
  0.7500000000D+00  0.1000000000D+01


[MO]
 Sym=      1.1
 Ene=     -20.5516
 Spin= Alpha
 Occup=    2.000000
1 0.55145023780863
2 0.47169090283362
3 0.005532400148311
4 -0.001078070325031
5 0.000913551568434
6 0.0
7 -0.001434730310189
8 -0.000297952243524
9 0.0
10 0.000457798422977
11 -0.000048341540123
12 0.0
13 0.000126161921393
14 0.000122137594702
15 -0.000213824892408
16 0.000091687297707
17 0.0
18 0.000045341795046
19 0.0
20 0.000005597317483
21 -0.000067399740054
22 0.000283509454766
23 0.000541940459730
24 -0.000057945525508
25 0.0
26 0.000082764387579
27 -0.000187636459490
28 0.0
29 0.000289594255680
30 -0.000429618756630
31 0.0
32 0.000361729269814
33 -0.000039289988858
34 -0.000043970642182
35 0.000083260631040
36 0.0
37 -0.000137397124042
38 0.0
39 -0.000008110313856
40 0.000094802356638
41 0.000052328928279
42 -0.000022736884860
43 0.0
44 -0.000034811777916
45 0.000000975689569
46 0.000001991250685
47 -0.000000600058589
48 -0.000077504525506
49 -0.000002158280817
50 0.0
51 -0.000004016616084
52 0.000013530143815
53 0.0
54 -0.000002092039877
55 0.000237435882437
56 0.0
57 -0.000111623116296
58 -0.000003289398505
59 -0.000001004683373
60 0.000004294081878
61 0.0
62 0.000014273137423
63 0.0
64 -0.000006426801048
65 0.000086149755013
66 0.000083894651930
67 0.000012225904146
68 0.0
69 -0.000015257738795
70 0.000002349187681
71 -0.000020204477806
72 -0.000034596044163
73 -0.000012667573861
74 0.000010247697867
75 0.000010358815173
76 0.000002349187681
77 -0.000020204477806
78 -0.000034596044163
79 -0.000012667573861
80 -0.000010247697867
81 0.000010358815173
 Sym=      2.1
 Ene=     -11.3287
 Spin= Alpha
 Occup=    2.000000
1 -0.000228295338213
2 -0.000335709893637
3 0.000676282234900
4 -0.000616078504202
5 0.000193832838116
6 0.0
7 -0.000298443368551
8 0.000284263760063
9 0.0
10 -0.000440638140515
11 -0.000177231640944
12 0.0
13 0.000258677257299
14 -0.000060995702440
15 -0.000050043788600
16 0.000111039491040
17 0.0
18 -0.000208451520533
19 0.0
20 0.56339576852011
21 0.46663096754316
22 0.003847571095275
23 0.000072685266625
24 -0.000153469717074
25 0.0
26 0.000250077071721
27 -0.000152781016546
28 0.0
29 0.000281537718464
30 -0.000234421927722
31 0.0
32 0.000228159246630
33 0.000114529828837
34 -0.000466285327874
35 0.000351755499036
36 0.0
37 -0.000317990624841
38 0.0
39 0.000384987586634
40 0.000035294006498
41 0.000215054633236
42 -0.000055260787534
43 0.0
44 0.000021542602494
45 0.002018455423017
46 0.001613187155547
47 0.000303237068382
48 -0.000263139196723
49 0.000062780467337
50 0.0
51 0.000125274839601
52 0.000074199228175
53 0.0
54 0.000265874978469
55 0.000036607110599
56 0.0
57 -0.000012765433753
58 -0.000101559915304
59 -0.000031789759340
60 0.000133349674644
61 0.0
62 0.000054574196058
63 0.0
64 0.000010596906685
65 0.000085856522575
66 0.000017336819913
67 0.000034695247168
68 0.0
69 -0.000015061843711
70 -0.000009617163104
71 0.000089269493721
72 0.000030915524902
73 0.000008926122279
74 -0.000018359522020
75 0.000030571633230
76 -0.000009617163104
77 0.000089269493721
78 0.000030915524902
79 0.000008926122279
80 0.000018359522020
81 0.000030571633230
 Sym=      3.1
 Ene=     -11.2367
 Spin= Alpha
 Occup=    2.000000
1 0.000004073208851
2 0.000006248907270
3 -0.000010514851967
4 -0.000031653606689
5 0.000006528051940
6 0.0
7 0.000012737357804
8 0.000001298783585
9 0.0
10 0.000014555051810
11 0.000032691947517
12 0.0
13 0.000029278737401
14 -0.000004361241885
15 -0.000000239062976
16 0.000004600304861
17 0.0
18 0.000002864090783
19 0.0
20 -0.002123295980357
21 -0.001822236613621
22 0.000262290703693
23 0.000630445444422
24 -0.000062230030003
25 0.0
26 -0.000140296748211
27 -0.000107471423268
28 0.0
29 -0.000265437936723
30 -0.000160620569709
31 0.0
32 -0.000290946220378
33 -0.000062672917488
34 -0.000041382780081
35 0.000104055697569
36 0.0
37 0.000079811133600
38 0.0
39 -0.000005509716760
40 -0.000019995765478
41 0.000029192137167
42 -0.000011417749615
43 0.0
44 -0.000000585324574
45 0.56329106179315
46 0.46652276292891
47 0.004648896479522
48 -0.001830742686057
49 0.000170443049940
50 0.0
51 -0.000030589552757
52 -0.000131974752983
53 0.0
54 -0.000006672877135
55 -0.000074926796956
56 0.0
57 -0.000237255698048
58 0.000060533900964
59 -0.000000837724007
60 -0.000059696176957
61 0.0
62 -0.000045218060007
63 0.0
64 0.000351724446178
65 0.000100608538278
66 0.000281212684547
67 -0.000023908113065
68 0.0
69 0.000008946738306
70 0.000355534780490
71 0.000199926497721
72 0.000221278697259
73 0.000006864637865
74 -0.000010515125198
75 0.000024240720997
76 0.000355534780490
77 0.000199926497721
78 0.000221278697259
79 0.000006864637865
80 0.000010515125198
81 0.000024240720997
 Sym=      4.1
 Ene=      -1.4112
 Spin= Alpha
 Occup=    2.000000
1 -0.10483749840681
2 -0.17489518271353
3 0.49089521163078
4 0.34796373264088
5 0.035450374594382
6 0.0
7 -0.055402977149760
8 0.054068960568886
9 0.0
10 -0.084954513979369
11 0.021618194194282
12 0.0
13 -0.033384073230291
14 -0.001177100208056
15 -0.009155022387309
16 0.010332122595365
17 0.0
18 -0.014595797108704
19 0.0
20 -0.062433879291497
21 -0.10030594809946
22 0.25530427798073
23 0.050070918099149
24 -0.048027399702048
25 0.0
26 0.071844115441236
27 -0.068253706559279
28 0.0
29 0.096325816603746
30 0.010350992688251
31 0.0
32 -0.017575392095590
33 -0.003409621700150
34 -0.014783056158145
35 0.018192677858295
36 0.0
37 -0.027861624927147
38 0.0
39 0.018039400142291
40 0.018034375463501
41 -0.005877323363946
42 -0.006443542099163
43 0.0
44 0.002914541159023
45 -0.008599053002217
46 -0.014189767138572
47 0.037329839959233
48 -0.001175816882146
49 0.001237485504665
50 0.0
51 0.008865419773899
52 0.003572436455308
53 0.0
54 0.021676202214711
55 -0.010644129099780
56 0.0
57 0.000763509239845
58 -0.003800551075299
59 -0.002367079554038
60 0.006167630629337
61 0.0
62 0.001467121800460
63 0.0
64 0.005287605285968
65 0.005519083237598
66 -0.003826217806898
67 0.002281432569705
68 0.0
69 0.000187532187901
70 0.002723787298530
71 0.007493252885751
72 0.000097261837989
73 -0.000000730261327
74 -0.001812375374858
75 0.001042840945213
76 0.002723787298530
77 0.007493252885751
78 0.000097261837989
79 -0.000000730261327
80 0.001812375374858
81 0.001042840945213
 Sym=      5.1
 Ene=      -1.0199
 Spin= Alpha
 Occup=    2.000000
1 0.027946023689578
2 0.047023111360192
3 -0.13585568287390
4 -0.12005727924417
5 -0.004947166392126
6 0.0
7 -0.014011544742585
8 -0.007967804225257
9 0.0
10 -0.024023434000971
11 0.000526678101549
12 0.0
13 -0.012709904974551
14 -0.002684226778107
15 0.000441280033010
16 0.002242946745097
17 0.0
18 0.001009186800846
19 0.0
20 -0.042708799068231
21 -0.071552850359438
22 0.19433308477846
23 0.11178288077786
24 0.003253365552816
25 0.0
26 -0.076123576047183
27 -0.004860487466886
28 0.0
29 -0.12742967269444
30 0.003031110182897
31 0.0
32 -0.039072035035647
33 -0.001655476967677
34 -0.006904769046605
35 0.008560246014282
36 0.0
37 0.016632830526625
38 0.0
39 0.032782111344888
40 0.044629556018845
41 -0.005960981771898
42 -0.009444568657442
43 0.0
44 -0.002596283136706
45 -0.094581120912280
46 -0.15595732374925
47 0.39423556473972
48 0.22200171374595
49 0.011132641817780
50 0.0
51 0.014548116399645
52 0.025206574980160
53 0.0
54 0.037116528356266
55 0.004282672198163
56 0.0
57 -0.001580551434806
58 -0.001760404261256
59 -0.003153447471897
60 0.004913851733153
61 0.0
62 0.006467850938177
63 0.0
64 0.066698407271301
65 0.090394346899153
66 -0.004095990020355
67 0.018203569078473
68 0.0
69 -0.000214306996748
70 0.071422736699797
71 0.096902266617580
72 -0.002049301839357
73 -0.005290571402062
74 -0.014759692732889
75 0.010111588528559
76 0.071422736699797
77 0.096902266617580
78 -0.002049301839357
79 -0.005290571402062
80 0.014759692732889
81 0.010111588528559
 Sym=      6.1
 Ene=      -0.8010
 Spin= Alpha
 Occup=    2.000000
1 0.039098799791562
2 0.066191349715622
3 -0.19667751578957
4 -0.21877329005791
5 0.079017050566901
6 0.0
7 -0.045483509607918
8 0.12088513587101
9 0.0
10 -0.065697210546948
11 0.081387938572791
12 0.0
13 -0.043752965903469
14 0.004244544305103
15 -0.002992427957923
16 -0.001252116347180
17 0.0
18 -0.009735070277936
19 0.0
20 -0.072150682138619
21 -0.12103159574630
22 0.33466552332980
23 0.23398944820101
24 0.085001219066728
25 0.0
26 0.001511313506181
27 0.12839395905267
28 0.0
29 0.007623793341266
30 0.064773561967309
31 0.0
32 -0.038429941939239
33 0.008845998041128
34 -0.007778514091090
35 -0.001067483950039
36 0.0
37 0.000794548417379
38 0.0
39 0.12550275217771
40 0.18424641681619
41 0.018542564054677
42 -0.023591572378030
43 0.0
44 -0.002664771167684
45 0.035817286763794
46 0.059466969036168
47 -0.14881473690396
48 -0.15039080482742
49 0.041873994585433
50 0.0
51 0.049760909917966
52 0.068883073833225
53 0.0
54 0.083969022931712
55 0.017918058321020
56 0.0
57 0.020768367599786
58 -0.004990719319535
59 -0.005839469390383
60 0.010830188709918
61 0.0
62 0.012894881851701
63 0.0
64 -0.063284784046432
65 -0.085254670941007
66 -0.019438193598897
67 -0.010095650593063
68 0.0
69 0.002860119752463
70 -0.041960212298564
71 -0.057520480189018
72 -0.010339199641238
73 0.004629637139625
74 0.006446261156754
75 -0.001714028506227
76 -0.041960212298564
77 -0.057520480189018
78 -0.010339199641238
79 0.004629637139625
80 -0.006446261156754
81 -0.001714028506227
 Sym=      7.1
 Ene=      -0.6796
 Spin= Alpha
 Occup=    2.000000
1 -0.029657566006270
2 -0.050248565741906
3 0.15217691154673
4 0.20905947984812
5 0.024423535637854
6 0.0
7 0.18109051156630
8 0.045110746314951
9 0.0
10 0.27211044426060
11 0.034226048612308
12 0.0
13 0.19940770266463
14 0.012631430838403
15 0.007148800871833
16 -0.019780231710236
17 0.0
18 0.006278461297778
19 0.0
20 0.022896159598935
21 0.038432792456173
22 -0.12212130084622
23 -0.033379240590764
24 0.14342852350828
25 0.0
26 0.001652439255111
27 0.22826591679885
28 0.0
29 0.004474480368595
30 0.082054659258393
31 0.0
32 0.046895282443418
33 -0.007151553713936
34 0.003313812652735
35 0.003837741061201
36 0.0
37 0.013151195387508
38 0.0
39 0.079026521085109
40 0.11541931318813
41 0.039075877143728
42 -0.010821255735335
43 0.0
44 -0.004644216159771
45 -0.007842655472480
46 -0.012786597854148
47 0.026471544721723
48 0.056484190597498
49 0.040308766845778
50 0.0
51 -0.084543910591133
52 0.059061968779984
53 0.0
54 -0.14380661190883
55 0.057302596515008
56 0.0
57 -0.063842651194686
58 -0.000263431914687
59 0.014489505363491
60 -0.014226073448803
61 0.0
62 -0.007265696106077
63 0.0
64 -0.025192713504221
65 -0.036295855250537
66 0.004104022065646
67 -0.003966667657815
68 0.0
69 -0.004889248526621
70 0.053858717698480
71 0.075002147726272
72 0.020418568287195
73 -0.000830991619633
74 -0.006783026702015
75 0.000292811526957
76 0.053858717698480
77 0.075002147726272
78 0.020418568287195
79 -0.000830991619633
80 0.006783026702015
81 0.000292811526957
 Sym=      8.1
 Ene=      -0.6290
 Spin= Alpha
 Occup=    2.000000
1 0.024074528989018
2 0.040754786540864
3 -0.12452359724855
4 -0.19433932416363
5 0.17573103024068
6 0.0
7 -0.088410468304875
8 0.26540718300618
9 0.0
10 -0.12425941159592
11 0.20362711173351
12 0.0
13 -0.092607967222727
14 0.007396459899689
15 -0.008813366866707
16 0.001416906967018
17 0.0
18 -0.019381022235216
19 0.0
20 0.004510484660893
21 0.008159323909282
22 -0.010940561708234
23 -0.095077638909788
24 -0.007267810095719
25 0.0
26 0.16516036813661
27 -0.010183864385527
28 0.0
29 0.25916641944073
30 0.038359665161857
31 0.0
32 0.082781791158443
33 -0.013232151143157
34 -0.002378654136718
35 0.015610805279875
36 0.0
37 -0.014775565651864
38 0.0
39 -0.008414996388777
40 -0.017150877089427
41 -0.013077485237360
42 0.000052969851686
43 0.0
44 0.005763130165212
45 -0.008745695713144
46 -0.014488358997622
47 0.031887532295959
48 0.066686144092380
49 -0.061468928512989
50 0.0
51 -0.10194000840208
52 -0.10439346160260
53 0.0
54 -0.16804329094593
55 -0.072663105892026
56 0.0
57 -0.082106231345511
58 0.007181641080346
59 0.009620728385091
60 -0.016802369465437
61 0.0
62 -0.019591557630444
63 0.0
64 0.058238270282580
65 0.082008835924877
66 0.006441565878670
67 0.005437208027493
68 0.0
69 -0.007426076775426
70 0.036632560408758
71 0.056593584577436
72 0.023585281208192
73 -0.004463689327463
74 -0.004872613599453
75 -0.002660508788452
76 0.036632560408758
77 0.056593584577436
78 0.023585281208192
79 -0.004463689327463
80 0.004872613599453
81 -0.002660508788452
 Sym=      1.2
 Ene=      -0.6072
 Spin= Alpha
 Occup=    2.000000
1 0.0
2 0.0
3 0.0
4 0.0
5 0.0
6 0.096325234033023
7 0.0
8 0.0
9 0.15411380176953
10 0.0
11 0.0
12 0.12431066769790
13 0.0
14 0.0
15 0.0
16 0.0
17 0.007949950988370
18 0.0
19 -0.012561886526642
20 0.0
21 0.0
22 0.0
23 0.0
24 0.0
25 0.087668915627750
26 0.0
27 0.0
28 0.15182871233924
29 0.0
30 0.0
31 0.093668937914111
32 0.0
33 0.0
34 0.0
35 0.0
36 -0.016858485242140
37 0.0
38 0.005673406322079
39 0.0
40 0.0
41 0.0
42 0.0
43 0.004511350577103
44 0.0
45 0.0
46 0.0
47 0.0
48 0.0
49 0.0
50 0.16160288282484
51 0.0
52 0.0
53 0.26224158795511
54 0.0
55 0.0
56 0.16297947023630
57 0.0
58 0.0
59 0.0
60 0.0
61 0.020986057556720
62 0.0
63 -0.014048852004043
64 0.0
65 0.0
66 0.0
67 0.0
68 0.009184798649646
69 0.0
70 0.11537190774156
71 0.17893407881397
72 0.061492717584784
73 -0.005868909754948
74 -0.006652938106518
75 0.010541332518951
76 -0.11537190774156
77 -0.17893407881397
78 -0.061492717584784
79 0.005868909754948
80 -0.006652938106518
81 -0.010541332518951
 Sym=      9.1
 Ene=      -0.5624
 Spin= Alpha
 Occup=    2.000000
1 0.003073310488025
2 0.005259740553110
3 -0.017210734309643
4 -0.050905701619165
5 -0.000183155112101
6 0.0
7 -0.085865596990572
8 -0.006598138794915
9 0.0
10 -0.12693099696014
11 -0.005566464847012
12 0.0
13 -0.099673936847620
14 -0.005627581098188
15 -0.002838047592066
16 0.008465628690254
17 0.0
18 -0.003614605416072
19 0.0
20 0.000906097075055
21 0.001790245688766
22 0.000551659919845
23 -0.030213097082574
24 -0.067733816576698
25 0.0
26 0.018007237108808
27 -0.10314358583531
28 0.0
29 0.028660447527312
30 -0.060309541963903
31 0.0
32 -0.005636598826325
33 -0.013071866049284
34 -0.000745234193428
35 0.013817100242712
36 0.0