
                                 *****************
                                 * O   R   C   A *
                                 *****************

                                            #,                                       
                                            ###                                      
                                            ####                                     
                                            #####                                    
                                            ######                                   
                                           ########,                                 
                                     ,,################,,,,,                         
                               ,,#################################,,                 
                          ,,##########################################,,             
                       ,#########################################, ''#####,          
                    ,#############################################,,   '####,        
                  ,##################################################,,,,####,       
                ,###########''''           ''''###############################       
              ,#####''   ,,,,##########,,,,          '''####'''          '####       
            ,##' ,,,,###########################,,,                        '##       
           ' ,,###''''                  '''############,,,                           
         ,,##''                                '''############,,,,        ,,,,,,###''
      ,#''                                            '''#######################'''  
     '                                                          ''''####''''         
             ,#######,   #######,   ,#######,      ##                                
            ,#'     '#,  ##    ##  ,#'     '#,    #''#        ,####,   ,####,        
            ##       ##  ##   ,#'  ##            #'  '#       #'       #'  '#        
            ##       ##  #######   ##           ,######,      #####,   #    #        
            '#,     ,#'  ##    ##  '#,     ,#' ,#      #,     #,   #   #,  ,#        
             '#######'   ##     ##  '#######'  #'      '#     '####' # '####'        



                #########################################################
                #                        -***-                          #
                #          Department of theory and spectroscopy        #
                #                                                       #
                #                      Frank Neese                      #
                #                                                       #
                #     Directorship, Architecture, Infrastructure        #
                #                    SHARK, DRIVERS                     #
                #        Core code/Algorithms in most modules           #
                #                                                       #
                #        Max Planck Institute fuer Kohlenforschung      #
                #                Kaiser Wilhelm Platz 1                 #
                #                 D-45470 Muelheim/Ruhr                 #
                #                      Germany                          #
                #                                                       #
                #                  All rights reserved                  #
                #                        -***-                          #
                #########################################################


                         Program Version 6.0.0  -   RELEASE  -


 With contributions from (in alphabetic order):
   Daniel Aravena         : Magnetic Suceptibility
   Michael Atanasov       : Ab Initio Ligand Field Theory (pilot matlab implementation)
   Alexander A. Auer      : GIAO ZORA, VPT2 properties, NMR spectrum
   Ute Becker             : All parallelization in ORCA, NUMFREQ, NUMCALC
   Giovanni Bistoni       : ED, misc. LED, open-shell LED, HFLD
   Martin Brehm           : Molecular dynamics
   Dmytro Bykov           : pre 5.0 version of the SCF Hessian
   Marcos Casanova-Páez   : Triplet and SCS-CIS(D). UHF-(DLPNO)-IP/EA/STEOM-CCSD. UHF-CVS-IP/STEOM-CCSD
   Vijay G. Chilkuri      : MRCI spin determinant printing, contributions to CSF-ICE
   Pauline Colinet        : FMM embedding
   Dipayan Datta          : RHF DLPNO-CCSD density
   Achintya Kumar Dutta   : EOM-CC, STEOM-CC
   Nicolas Foglia         : Exact transition moments, OPA infrastructure, MCD improvements
   Dmitry Ganyushin       : Spin-Orbit,Spin-Spin,Magnetic field MRCI
   Miquel Garcia          : C-PCM and meta-GGA Hessian, CCSD/C-PCM, Gaussian charge scheme
   Tiago L. C. Gouveia    : GS-ROHF, GS-ROCIS
   Yang Guo               : DLPNO-NEVPT2, F12-NEVPT2, CIM, IAO-localization
   Andreas Hansen         : Spin unrestricted coupled pair/coupled cluster methods
   Ingolf Harden          : AUTO-CI MPn and infrastructure 
   Benjamin Helmich-Paris : MC-RPA, TRAH-(SCF,CASSCF), AVAS, COSX integrals, SCF dyn. polar.
   Lee Huntington         : MR-EOM, pCC
   Robert Izsak           : Overlap fitted RIJCOSX, COSX-SCS-MP3, EOM
   Riya Kayal             : Wick's Theorem for AUTO-CI, AUTO-CI UHF-CCSDT
   Emily Kempfer          : AUTO-CI, RHF CISDT and CCSDT
   Christian Kollmar      : KDIIS, OOCD, Brueckner-CCSD(T), CCSD density, CASPT2, CASPT2-K, improved NEVPT2
   Axel Koslowski         : Symmetry handling
   Simone Kossmann        : Meta GGA functionals, TD-DFT gradient, OOMP2, (MP2 Hessian; deprecated post 5.0)
   Lucas Lang             : DCDCAS
   Marvin Lechner         : AUTO-CI (C++ implementation), FIC-MRCC
   Spencer Leger          : CASSCF response
   Dagmar Lenk            : GEPOL surface, SMD, ORCA-2-JSON
   Dimitrios Liakos       : Extrapolation schemes; Compound Job, initial MDCI parallelization
   Dimitrios Manganas     : Further ROCIS development; embedding schemes. LFT, Crystal Embedding
   Dimitrios Pantazis     : SARC Basis sets
   Anastasios Papadopoulos: AUTO-CI, single reference methods and gradients
   Taras Petrenko         : pre 6.0 DFT Hessian and TD-DFT gradient, (ASA, deprecated), ECA, 1-Electron XAS/XES, NRVS
   Peter Pinski           : DLPNO-MP2, DLPNO-MP2 Gradient
   Christoph Reimann      : Effective Core Potentials
   Marius Retegan         : Local ZFS, SOC
   Christoph Riplinger    : Optimizer, TS searches, QM/MM, DLPNO-CCSD(T), (RO)-DLPNO pert. Triples
   Michael Roemelt        : Original ROCIS implementation
   Masaaki Saitow         : Open-shell DLPNO-CCSD energy and density
   Barbara Sandhoefer     : DKH picture change effects
   Kantharuban Sivalingam : CASSCF convergence/infrastructure, NEVPT2 and variants, FIC-MRCI
   Bernardo de Souza      : ESD, SOC TD-DFT
   Georgi Stoychev        : AutoAux, RI-MP2 NMR, DLPNO-MP2 response, X2C
   Van Anh Tran           : RI-MP2 g-tensors
   Willem Van den Heuvel  : Paramagnetic NMR
   Zikuan Wang            : NOTCH, Electric field optimization 
   Frank Wennmohs         : Technical directorship and infrastructure
   Hang Xu                : AUTO-CI-Response properties 


 We gratefully acknowledge several colleagues who have allowed us to
 interface, adapt or use parts of their codes:
   Stefan Grimme, W. Hujo, H. Kruse, P. Pracht,  : VdW corrections, initial TS optimization,
                  C. Bannwarth, S. Ehlert,         DFT functionals, gCP, sTDA/sTD-DF
                  L. Wittmann, M. Mueller
   Ed Valeev, F. Pavosevic, A. Kumar             : LibInt (2-el integral package), F12 methods
   Garnet Chan, S. Sharma, J. Yang, R. Olivares  : DMRG
   Ulf Ekstrom                                   : XCFun DFT Library
   Mihaly Kallay                                 : mrcc  (arbitrary order and MRCC methods)
   Frank Weinhold                                : gennbo (NPA and NBO analysis)
   Simon Mueller                                 : openCOSMO-RS
   Christopher J. Cramer and Donald G. Truhlar   : smd solvation model
   Lars Goerigk                                  : TD-DFT with DH, B97 family of functionals
   V. Asgeirsson, H. Jonsson                     : NEB implementation
   FAccTs GmbH                                   : IRC, NEB, NEB-TS, DLPNO-Multilevel, CI-OPT
                                                   MM, QMMM, 2- and 3-layer-ONIOM, Crystal-QMMM,
                                                   LR-CPCM, SF, NACMEs, symmetry and pop. for TD-DFT,
                                                   nearIR, NL-DFT gradient (VV10), updates on ESD,
                                                   ML-optimized integration grids, MBIS, APM,
                                                   GOAT, DOCKER, SOLVATOR, interface openCOSMO-RS
   S Lehtola, MJT Oliveira, MAL Marques          : LibXC Library
   Liviu Ungur et al                             : ANISO software


 Your calculation uses the libint2 library for the computation of 2-el integrals
 For citations please refer to: http://libint.valeyev.net

 Your ORCA version has been built with support for libXC version: 6.2.2
 For citations please refer to: https://libxc.gitlab.io

 This ORCA versions uses:
   CBLAS   interface :  Fast vector & matrix operations
   LAPACKE interface :  Fast linear algebra routines
   SCALAPACK package :  Parallel linear algebra routines
   Shared memory     :  Shared parallel matrices
   BLAS/LAPACK       :  OpenBLAS 0.3.27  USE64BITINT DYNAMIC_ARCH NO_AFFINITY Haswell SINGLE_THREADED
        Core in use  :  Haswell
   Copyright (c) 2011-2014, The OpenBLAS Project


================================================================================

----- Orbital basis set information -----
Your calculation utilizes the basis: 6-311G(d,p)
   H, Li - Ne  : R. Krishnan, J. S. Binkley, R. Seeger and J. A. Pople, J. Chem. Phys. 72, 650 (1980).
   Na - Ar     : A. D. McLean and G. S. Chandler J. Chem. Phys. 72, 5639, (1980).
   K  - Ca     : J.-P. Blaudeau, M. P. McGrath, L. A. Curtiss and L. Radom, J. Chem. Phys. 107, 5016 (1997).
   Ga - Kr     : L. A. Curtiss, M. P. McGrath, J.-P. Blandeau, N. E. Davis, R. C. Binning and L. Radom, J. Chem. Phys. 103, 6104 (1995).
   Pol./Diff.
   H, Li - Cl  : T. Clark, J. Chandrasekhar and P. v. R. Schleyer, J. Comp. Chem. 4, 294 (1983).
   H - Ne      : M. J. Frisch, J. A. Pople and J. S. Binkley, J. Chem. Phys. 80, 3265 (1984).

================================================================================
                                        WARNINGS
                       Please study these warnings very carefully!
================================================================================


WARNING: Geometry Optimization
  ===> : Switching off AutoStart
         For restart on a previous wavefunction, please use MOREAD

================================================================================
                                       INPUT FILE
================================================================================
NAME = h2o.inp
|  1> ! HF 6-311g(d,p) opt freq
|  2> 
|  3> * int 0 1
|  4>     C  0 0 0 0.0000   0.000    0.00
|  5>     O  1 0 0 1.2029   0.000    0.00
|  6>     H  1 2 0 1.1075 122.016    0.00
|  7>     H  1 2 3 1.1075 122.016  180.00
|  8> *
|  9> 
| 10>                          ****END OF INPUT****
================================================================================

                       *****************************
                       * Geometry Optimization Run *
                       *****************************

Geometry optimization settings:
Update method            Update   .... BFGS
Choice of coordinates    CoordSys .... (2022) Redundant Internals
Initial Hessian          InHess   .... Almloef's Model
Max. no of cycles        MaxIter  .... 50

Convergence Tolerances:
Energy Change            TolE     ....  5.0000e-06 Eh
Max. Gradient            TolMAXG  ....  3.0000e-04 Eh/bohr
RMS Gradient             TolRMSG  ....  1.0000e-04 Eh/bohr
Max. Displacement        TolMAXD  ....  4.0000e-03 bohr
RMS Displacement         TolRMSD  ....  2.0000e-03 bohr
Strict Convergence                .... False

------------------------------------------------------------------------------
                        ORCA OPTIMIZATION COORDINATE SETUP
------------------------------------------------------------------------------

The optimization will be done in redundant internal coordinates (2022)
Making redundant internal coordinates   ...  (2022 redundants) done
Evaluating the initial hessian          ...  (Almloef) done
Evaluating the coordinates              ...  done
Calculating the B-matrix                .... done
Calculating the G-matrix                .... done
Diagonalizing the G-matrix              .... done
The first mode is                       ....    1
The number of degrees of freedom        ....    6

    -----------------------------------------------------------------
                    Redundant Internal Coordinates


    -----------------------------------------------------------------
         Definition                    Initial Value    Approx d2E/dq
    -----------------------------------------------------------------
      1. B(O   1,C   0)                  1.2029         1.112709   
      2. B(H   2,C   0)                  1.1075         0.337678   
      3. B(H   3,C   0)                  1.1075         0.337678   
      4. A(O   1,C   0,H   3)          122.0160         0.383465   
      5. A(H   2,C   0,H   3)          115.9680         0.285050   
      6. A(O   1,C   0,H   2)          122.0160         0.383465   
      7. I(O   1,H   3,H   2,C   0)      0.0000         0.113050   
    -----------------------------------------------------------------

Number of atoms                         .... 4
Number of degrees of freedom            .... 7


         *************************************************************
         *                GEOMETRY OPTIMIZATION CYCLE   1            *
         *************************************************************
---------------------------------
CARTESIAN COORDINATES (ANGSTROEM)
---------------------------------
  C      0.000000    0.000000    0.000000
  O      1.202900    0.000000    0.000000
  H     -0.587148    0.939049    0.000000
  H     -0.587148   -0.939049   -0.000000

----------------------------
CARTESIAN COORDINATES (A.U.)
----------------------------
  NO LB      ZA    FRAG     MASS         X           Y           Z
   0 C     6.0000    0    12.011    0.000000    0.000000    0.000000
   1 O     8.0000    0    15.999    2.273152    0.000000    0.000000
   2 H     1.0000    0     1.008   -1.109549    1.774546    0.000000
   3 H     1.0000    0     1.008   -1.109549   -1.774546   -0.000000

--------------------------------
INTERNAL COORDINATES (ANGSTROEM)
--------------------------------
 C      0   0   0     0.000000000000     0.00000000     0.00000000
 O      1   0   0     1.202900000000     0.00000000     0.00000000
 H      1   2   0     1.107500000000   122.01600000     0.00000000
 H      1   2   3     1.107500000000   122.01600000   180.00000000

---------------------------
INTERNAL COORDINATES (A.U.)
---------------------------
 C      0   0   0     0.000000000000     0.00000000     0.00000000
 O      1   0   0     2.273151566494     0.00000000     0.00000000
 H      1   2   0     2.092871693318   122.01600000     0.00000000
 H      1   2   3     2.092871693318   122.01600000   180.00000000

---------------------
BASIS SET INFORMATION
---------------------
There are 3 groups of distinct atoms

 Group   1 Type C   : 11s5p1d contracted to 4s3p1d pattern {6311/311/1}
 Group   2 Type O   : 11s5p1d contracted to 4s3p1d pattern {6311/311/1}
 Group   3 Type H   : 5s1p contracted to 3s1p pattern {311/1}

Atom   0C    basis set group =>   1
Atom   1O    basis set group =>   2
Atom   2H    basis set group =>   3
Atom   3H    basis set group =>   3
------------------------------------------------------------------------------
                             ORCA STARTUP CALCULATIONS
------------------------------------------------------------------------------
------------------------------------------------------------------------------
                   ___                                                        
                  /   \      - P O W E R E D   B Y -                         
                 /     \                                                     
                 |  |  |   _    _      __       _____    __    __             
                 |  |  |  | |  | |    /  \     |  _  \  |  |  /  |          
                  \  \/   | |  | |   /    \    | | | |  |  | /  /          
                 / \  \   | |__| |  /  /\  \   | |_| |  |  |/  /          
                |  |  |   |  __  | /  /__\  \  |    /   |      \           
                |  |  |   | |  | | |   __   |  |    \   |  |\   \          
                \     /   | |  | | |  |  |  |  | |\  \  |  | \   \       
                 \___/    |_|  |_| |__|  |__|  |_| \__\ |__|  \__/        
                                                                              
                      - O R C A' S   B I G   F R I E N D -                    
                                      &                                       
                       - I N T E G R A L  F E E D E R -                       
                                                                              
 v1 FN, 2020, v2 2021, v3 2022-2024                                           
------------------------------------------------------------------------------


----------------------
SHARK INTEGRAL PACKAGE
----------------------

Number of atoms                             ...      4
Number of basis functions                   ...     48
Number of shells                            ...     24
Maximum angular momentum                    ...      2
Integral batch strategy                     ... SHARK/LIBINT Hybrid
RI-J (if used) integral strategy            ... SPLIT-RIJ (Revised 2003 algorithm where possible)
Printlevel                                  ...      1
Contraction scheme used                     ... SEGMENTED contraction
Prescreening option                         ... SCHWARTZ
   Thresh                                   ... 2.500e-11
   Tcut                                     ... 2.500e-12
   Tpresel                                  ... 2.500e-12 
Coulomb Range Separation                    ... NOT USED
Exchange Range Separation                   ... NOT USED
Multipole approximations                    ... NOT USED
Finite Nucleus Model                        ... NOT USED
CABS basis                                  ... NOT available
Auxiliary Coulomb fitting basis             ... NOT available
Auxiliary J/K fitting basis                 ... NOT available
Auxiliary Correlation fitting basis         ... NOT available
Auxiliary 'external' fitting basis          ... NOT available

Checking pre-screening integrals            ... done (  0.0 sec) Dimension = 24
Check shell pair data                       ... done (  0.0 sec)
Shell pair information
Shell pair cut-off parameter TPreSel        ...   2.5e-12
Total number of shell pairs                 ...       300
Shell pairs after pre-screening             ...       300
Total number of primitive shell pairs       ...      1129
Primitive shell pairs kept                  ...      1004
          la=0 lb=0:    105 shell pairs
          la=1 lb=0:    112 shell pairs
          la=1 lb=1:     36 shell pairs
          la=2 lb=0:     28 shell pairs
          la=2 lb=1:     16 shell pairs
          la=2 lb=2:      3 shell pairs

Calculating one electron integrals          ... done (  0.0 sec)
Calculating Nuclear repulsion               ... done (  0.0 sec) ENN=     31.320154411946 Eh

Diagonalization of the overlap matrix:
Smallest eigenvalue                        ... 1.360e-02
Time for diagonalization                   ...    0.003 sec
Threshold for overlap eigenvalues          ... 1.000e-07
Number of eigenvalues below threshold      ... 0
Time for construction of square roots      ...    0.000 sec
Total time needed                          ...    0.004 sec

-------------------
DFT GRID GENERATION
-------------------

General Integration Accuracy     IntAcc      ... 4.388
Radial Grid Type                 RadialGrid  ... OptM3 with GC (2021)
Angular Grid (max. ang.)         AngularGrid ... 4 (Lebedev-302)
Angular grid pruning method      GridPruning ... 4 (adaptive)
Weight generation scheme         WeightScheme... mBecke (2022)
Basis function cutoff            BFCut       ... 1.0000e-11
Integration weight cutoff        WCut        ... 1.0000e-14
Partially contracted basis set               ... off
Rotationally invariant grid construction     ... off
Angular grids for H and He will be reduced by one unit

Total number of grid points                  ...    18835
Total number of batches                      ...      297
Average number of points per batch           ...       63
Average number of grid points per atom       ...     4709
Initializing property integral containers    ... done (  0.0 sec)

SHARK setup successfully completed in   0.1 seconds

Maximum memory used throughout the entire STARTUP-calculation: 7.6 MB
-------------------------------------------------------------------------------
                                 ORCA GUESS
                   Start orbitals & Density for SCF / CASSCF
-------------------------------------------------------------------------------

------------
SCF SETTINGS
------------
Hamiltonian:
 Ab initio Hamiltonian  Method          .... Hartree-Fock(GTOs)


General Settings:
 Integral files         IntName         .... h2o
 Hartree-Fock type      HFTyp           .... RHF
 Total Charge           Charge          ....    0
 Multiplicity           Mult            ....    1
 Number of Electrons    NEL             ....   16
 Basis Dimension        Dim             ....   48
 Nuclear Repulsion      ENuc            ....     31.3201544119 Eh

Convergence Acceleration:
 AO-DIIS                CNVDIIS         .... on
   Start iteration      DIISMaxIt       ....    12
   Startup error        DIISStart       ....  0.200000
   # of expansion vecs  DIISMaxEq       ....     5
   Bias factor          DIISBfac        ....   1.050
   Max. coefficient     DIISMaxC        ....  10.000
 MO-DIIS                CNVKDIIS        .... off
 Trust-Rad. Augm. Hess. CNVTRAH         .... auto
   Auto Start mean grad. ratio tolernc. ....  1.125000
   Auto Start start iteration           ....    50
   Auto Start num. interpolation iter.  ....    10
   Max. Number of Micro iterations      ....    24
   Max. Number of Macro iterations      .... Maxiter - #DIIS iter
   Number of Davidson start vectors     ....     2
   Converg. threshold    (grad. norm)   ....   1.000e-05
   Grad. Scal. Fac. for Micro threshold ....   0.100
   Minimum threshold for Micro iter.    ....   1.000e-02
   NR start threshold (gradient norm)   ....   1.000e-04
   Initial trust radius                 ....   0.400
   Minimum AH scaling param. (alpha)    ....   1.000
   Maximum AH scaling param. (alpha)    .... 1000.000
   Quad. conv. algorithm                .... NR
   White noise on init. David. guess    .... on
   Maximum white noise                  ....   0.010
   Pseudo random numbers                .... off
   Inactive MOs                         .... canonical
   Orbital update algorithm             .... Taylor
   Preconditioner                       .... Diag
   Full preconditioner red. dimension   ....   250
 SOSCF                  CNVSOSCF        .... on
   Start iteration      SOSCFMaxIt      ....   150
   Startup grad/error   SOSCFStart      ....  0.003300
   Hessian update       SOSCFHessUp     .... L-BFGS
 Level Shifting         CNVShift        .... on
   Level shift para.    LevelShift      ....    0.2500
   Turn off err/grad.   ShiftErr        ....    0.0010
 Zerner damping         CNVZerner       .... off
 Static damping         CNVDamp         .... on
   Fraction old density DampFac         ....    0.7000
   Max. Damping (<1)    DampMax         ....    0.9800
   Min. Damping (>=0)   DampMin         ....    0.0000
   Turn off err/grad.   DampErr         ....    0.1000

SCF Procedure:
 Maximum # iterations   MaxIter         ....   125
 SCF integral mode      SCFMode         .... Direct
   Integral package                     .... SHARK and LIBINT hybrid scheme
 Reset frequency        DirectResetFreq ....    20
 Integral Threshold     Thresh          ....  2.500e-11 Eh
 Primitive CutOff       TCut            ....  2.500e-12 Eh

Convergence Tolerance:
 Convergence Check Mode ConvCheckMode   .... Total+1el-Energy
 Convergence forced     ConvForced      .... 0
 Energy Change          TolE            ....  1.000e-08 Eh
 1-El. energy change                    ....  1.000e-05 Eh
 Orbital Gradient       TolG            ....  1.000e-05
 Orbital Rotation angle TolX            ....  1.000e-05
 DIIS Error             TolErr          ....  5.000e-07

------------------------------
INITIAL GUESS: MODEL POTENTIAL
------------------------------
Loading Hartree-Fock densities                     ... done
Calculating cut-offs                               ... done
Initializing the effective Hamiltonian             ... done
Setting up the integral package (SHARK)            ... done
Starting the Coulomb interaction                   ... done (   0.0 sec)
Making the grid                                    ... done (   0.0 sec)
Mapping shells                                     ... done
Starting the XC term evaluation                    ... done (   0.0 sec)
Transforming the Hamiltonian                       ... done (   0.0 sec)
Diagonalizing the Hamiltonian                      ... done (   0.0 sec)
Back transforming the eigenvectors                 ... done (   0.0 sec)
Now organizing SCF variables                       ... done
                      ------------------
                      INITIAL GUESS DONE (   0.0 sec)
                      ------------------
             **** ENERGY FILE WAS UPDATED (h2o.en.tmp) ****
Finished Guess after   0.1 sec
Maximum memory used throughout the entire GUESS-calculation: 3.9 MB

-------------------------------------------------------------------------------------------
                                      ORCA LEAN-SCF
                              memory conserving SCF solver
-------------------------------------------------------------------------------------------

----------------------------------------D-I-I-S--------------------------------------------
Iteration    Energy (Eh)           Delta-E    RMSDP     MaxDP     DIISErr   Damp  Time(sec)
-------------------------------------------------------------------------------------------
               ***  Starting incremental Fock matrix formation  ***
    1    -113.8099953608610804     0.00e+00  3.08e-03  4.37e-02  3.45e-01  0.700   0.1
    2    -113.8427177578669216    -3.27e-02  2.10e-03  2.44e-02  2.11e-01  0.700   0.0
                               ***Turning on AO-DIIS***
    3    -113.8606874769667456    -1.80e-02  8.91e-04  9.37e-03  1.23e-01  0.700   0.0
    4    -113.8719605650285587    -1.13e-02  5.98e-04  5.18e-03  8.82e-02  0.700   0.0
    5    -113.8796608512491844    -7.70e-03  1.49e-03  1.15e-02  6.56e-02  0.000   0.0
    6    -113.8977216440209190    -1.81e-02  2.09e-04  2.55e-03  8.15e-03  0.000   0.0
                              *** Initializing SOSCF ***
---------------------------------------S-O-S-C-F--------------------------------------
Iteration    Energy (Eh)           Delta-E    RMSDP     MaxDP     MaxGrad    Time(sec)
--------------------------------------------------------------------------------------
    7    -113.8977828583809639    -6.12e-05  1.21e-04  1.20e-03  2.38e-03     0.1
               *** Restarting incremental Fock matrix formation ***
    8    -113.8977976321729386    -1.48e-05  8.50e-05  8.51e-04  1.08e-03     0.1
    9    -113.8978043176346375    -6.69e-06  1.38e-04  1.39e-03  4.15e-04     0.0
   10    -113.8978073746019390    -3.06e-06  2.65e-05  3.00e-04  1.82e-04     0.0
   11    -113.8978076165681159    -2.42e-07  3.95e-06  3.36e-05  3.06e-05     0.0
   12    -113.8978076225172060    -5.95e-09  1.90e-06  1.80e-05  1.11e-05     0.0
                 **** Energy Check signals convergence ****

               *****************************************************
               *                     SUCCESS                       *
               *           SCF CONVERGED AFTER  12 CYCLES          *
               *****************************************************

             **** ENERGY FILE WAS UPDATED (h2o.en.tmp) ****

----------------
TOTAL SCF ENERGY
----------------

Total Energy       :       -113.89780762251721 Eh           -3099.31691 eV

Components:
Nuclear Repulsion  :         31.32015441194602 Eh             852.26473 eV
Electronic Energy  :       -145.21796203446323 Eh           -3951.58164 eV
One Electron Energy:       -217.44783933620857 Eh           -5917.05653 eV
Two Electron Energy:         72.22987730174535 Eh            1965.47488 eV

Virial components:
Potential Energy   :       -227.67523671857077 Eh           -6195.35816 eV
Kinetic Energy     :        113.77742909605358 Eh            3096.04125 eV
Virial Ratio       :          2.00105801763513

---------------
SCF CONVERGENCE
---------------

  Last Energy change         ...    5.9491e-09  Tolerance :   1.0000e-08
  Last MAX-Density change    ...    1.8017e-05  Tolerance :   1.0000e-07
  Last RMS-Density change    ...    1.9049e-06  Tolerance :   5.0000e-09
  Last DIIS Error            ...    2.3846e-03  Tolerance :   5.0000e-07
  Last Orbital Gradient      ...    1.1094e-05  Tolerance :   1.0000e-05
  Last Orbital Rotation      ...    1.1650e-05  Tolerance :   1.0000e-05


----------------
ORBITAL ENERGIES
----------------

  NO   OCC          E(Eh)            E(eV) 
   0   2.0000     -20.569999      -559.7381 
   1   2.0000     -11.340191      -308.5823 
   2   2.0000      -1.405774       -38.2531 
   3   2.0000      -0.865513       -23.5518 
   4   2.0000      -0.690676       -18.7943 
   5   2.0000      -0.649820       -17.6825 
   6   2.0000      -0.533595       -14.5199 
   7   2.0000      -0.438474       -11.9315 
   8   0.0000       0.129671         3.5285 
   9   0.0000       0.156777         4.2661 
  10   0.0000       0.211070         5.7435 
  11   0.0000       0.331537         9.0216 
  12   0.0000       0.474147        12.9022 
  13   0.0000       0.565037        15.3754 
  14   0.0000       0.573878        15.6160 
  15   0.0000       0.739087        20.1116 
  16   0.0000       0.799601        21.7582 
  17   0.0000       0.872568        23.7438 
  18   0.0000       0.988661        26.9028 
*Only the first 10 virtual orbitals were printed.

                    ********************************
                    * MULLIKEN POPULATION ANALYSIS *
                    ********************************

-----------------------
MULLIKEN ATOMIC CHARGES
-----------------------
   0 C :    0.204714
   1 O :   -0.350057
   2 H :    0.072672
   3 H :    0.072672
Sum of atomic charges:   -0.0000000

--------------------------------
MULLIKEN REDUCED ORBITAL CHARGES
--------------------------------
  0 C s       :     3.168100  s :     3.168100
      pz      :     0.674751  p :     2.495640
      px      :     0.838090
      py      :     0.982800
      dz2     :     0.005559  d :     0.131546
      dxz     :     0.029958
      dyz     :     0.000000
      dx2y2   :     0.025560
      dxy     :     0.070469

  1 O s       :     3.854297  s :     3.854297
      pz      :     1.284600  p :     4.476600
      px      :     1.340467
      py      :     1.851533
      dz2     :     0.002096  d :     0.019160
      dxz     :     0.006342
      dyz     :     0.000000
      dx2y2   :     0.007070
      dxy     :     0.003653

  2 H s       :     0.903204  s :     0.903204
      pz      :     0.002175  p :     0.024125
      px      :     0.006333
      py      :     0.015617

  3 H s       :     0.903204  s :     0.903204
      pz      :     0.002175  p :     0.024125
      px      :     0.006333
      py      :     0.015617



                     *******************************
                     * LOEWDIN POPULATION ANALYSIS *
                     *******************************

----------------------
LOEWDIN ATOMIC CHARGES
----------------------
   0 C :    0.149127
   1 O :   -0.090363
   2 H :   -0.029382
   3 H :   -0.029382

-------------------------------
LOEWDIN REDUCED ORBITAL CHARGES
-------------------------------
  0 C s       :     2.856089  s :     2.856089
      pz      :     0.682413  p :     2.729400
      px      :     1.017176
      py      :     1.029811
      dz2     :     0.014353  d :     0.265385
      dxz     :     0.044707
      dyz     :     0.000000
      dx2y2   :     0.063152
      dxy     :     0.143173

  1 O s       :     3.499343  s :     3.499343
      pz      :     1.253122  p :     4.565030
      px      :     1.494888
      py      :     1.817020
      dz2     :     0.003548  d :     0.025990
      dxz     :     0.006034
      dyz     :     0.000000
      dx2y2   :     0.011525
      dxy     :     0.004883

  2 H s       :     0.965101  s :     0.965101
      pz      :     0.006862  p :     0.064281
      px      :     0.017171
      py      :     0.040248

  3 H s       :     0.965101  s :     0.965101
      pz      :     0.006862  p :     0.064281
      px      :     0.017171
      py      :     0.040248



                      *****************************
                      * MAYER POPULATION ANALYSIS *
                      *****************************

  NA   - Mulliken gross atomic population
  ZA   - Total nuclear charge
  QA   - Mulliken gross atomic charge
  VA   - Mayer's total valence
  BVA  - Mayer's bonded valence
  FA   - Mayer's free valence

  ATOM       NA         ZA         QA         VA         BVA        FA
  0 C      5.7953     6.0000     0.2047     3.8818     3.8818     0.0000
  1 O      8.3501     8.0000    -0.3501     2.0302     2.0302    -0.0000
  2 H      0.9273     1.0000     0.0727     0.9532     0.9532    -0.0000
  3 H      0.9273     1.0000     0.0727     0.9532     0.9532    -0.0000

  Mayer bond orders larger than 0.100000
B(  0-C ,  1-O ) :   1.9976 B(  0-C ,  2-H ) :   0.9421 B(  0-C ,  3-H ) :   0.9421 


-------
TIMINGS
-------

Total SCF time: 0 days 0 hours 0 min 0 sec 

Total time                  ....       0.540 sec
Sum of individual times     ....       0.529 sec  ( 97.9%)

SCF preparation             ....       0.019 sec  (  3.5%)
Fock matrix formation       ....       0.493 sec  ( 91.1%)
  Startup                   ....       0.001 sec  (  0.1% of F)
  Coulomb+Exchange Fock     ....       0.489 sec  ( 99.3% of F)
Diagonalization             ....       0.000 sec  (  0.0%)
Density matrix formation    ....       0.002 sec  (  0.4%)
Total Energy calculation    ....       0.001 sec  (  0.1%)
Population analysis         ....       0.002 sec  (  0.4%)
Orbital Transformation      ....       0.002 sec  (  0.4%)
Orbital Orthonormalization  ....       0.000 sec  (  0.0%)
DIIS solution               ....       0.008 sec  (  1.6%)
SOSCF solution              ....       0.002 sec  (  0.4%)
Finished LeanSCF after   0.5 sec

Maximum memory used throughout the entire LEANSCF-calculation: 7.4 MB

------------------------------------------------------------------------------
                         ORCA PROPERTY INTEGRAL CALCULATIONS
------------------------------------------------------------------------------

GBWName                                   ... h2o.gbw
Number of atoms                           ...      4
Number of basis functions                 ...     48
Max core memory                           ...   1024 MB

Dipole integrals                          ... YES
Quadrupole integrals                      ...  NO
Linear momentum integrals                 ...  NO
Angular momentum integrals                ...  NO
Higher moments length integrals           ...  NO
Higher moments velocity integrals         ...  NO
Kinetic energy integrals                  ...  NO
GIAO right hand sides                     ...  NO
GIAO dipole derivative integrals          ...  NO
SOC integrals                             ...  NO
EPR diamagnetic integrals (GIAO)          ...  NO
EPR gauge integrals                       ...  NO
Field gradient integrals                  ...  NO (   0 nuclei)
Spin-dipole/Fermi contact integrals       ...  NO (   0 nuclei)
Contact density integrals                 ...  NO (   0 nuclei)
Nucleus-orbit integrals                   ...  NO (   0 nuclei)
Geometric perturbations                   ...  NO (   4 nuclei)

Choice of electric origin   ... Center of mass
Position of electric origin ... (  1.1367, -0.0000, -0.0000) 
Choice of magnetic origin   ... GIAO
Position of magnetic origin ... (  0.0000,  0.0000,  0.0000) 

Calculating integrals                     ... Electric Dipole (Length)     done (  0.0 sec)

Property integrals calculated in   0.0 sec

Maximum memory used throughout the entire PROPINT-calculation: 4.0 MB

-------------------------   --------------------
FINAL SINGLE POINT ENERGY      -113.897807622517
-------------------------   --------------------

------------------------------------------------------------------------------
                         ORCA SCF GRADIENT CALCULATION
------------------------------------------------------------------------------

Nuc. rep. gradient        (SHARK) ... done (  0.0 sec)
HCore & Overlap gradient  (SHARK) ... done (  0.0 sec)
Two-electron gradient     (SHARK) ... done (  0.2 sec)

------------------
CARTESIAN GRADIENT
------------------

   1   C   :   -0.035281064    0.000000000   -0.000000000
   2   O   :    0.047136232   -0.000000000    0.000000000
   3   H   :   -0.005927584    0.008004822   -0.000000000
   4   H   :   -0.005927584   -0.008004822   -0.000000000

Difference to translation invariance:
           :    0.0000000000    0.0000000000   -0.0000000000

Difference to rotation invariance:
           :   -0.0000000000   -0.0000000000   -0.0000000000

Norm of the Cartesian gradient     ...    0.0605392818
RMS gradient                       ...    0.0174761853
MAX gradient                       ...    0.0471362317

-------
TIMINGS
-------

Total SCF gradient time     ....        0.206 sec

Densities                   ....       0.000 sec  (  0.0%)
One electron gradient       ....       0.009 sec  (  4.5%)
Two electron gradient       ....       0.196 sec  ( 95.3%)

Maximum memory used throughout the entire SCFGRAD-calculation: 13.2 MB
------------------------------------------------------------------------------
                         ORCA GEOMETRY RELAXATION STEP
------------------------------------------------------------------------------

Reading the OPT-File                    .... done
Getting information on internals        .... done
Copying old internal coords+grads       .... done
Making the new internal coordinates     .... (2022 redundants) done
Validating the new internal coordinates .... (2022 redundants) done
Calculating the B-matrix                .... done
Calculating the G,G- and P matrices     .... done
Transforming gradient to internals      .... done
Projecting the internal gradient        .... done
Number of atoms                         ....   4
Number of internal coordinates          ....   7
Current Energy                          ....  -113.897807623 Eh
Current gradient norm                   ....     0.060539282 Eh/bohr
Maximum allowed component of the step   ....  0.300
Current trust radius                    ....  0.300
Evaluating the initial hessian          ....  (Almloef) done
Projecting the Hessian                  .... done
Forming the augmented Hessian           .... done
Diagonalizing the augmented Hessian     .... done
Last element of RFO vector              ....  0.998251110
Lowest eigenvalues of augmented Hessian:
 -0.002577306  0.113050103  0.317860542  0.337678172  0.338256416
Length of the computed step             ....  0.059219741
The final length of the internal step   ....  0.059219741
Converting the step to Cartesian space:
 Initial RMS(Int)=    0.0223829583
Transforming coordinates:
 Iter   0:  RMS(Cart)=    0.0170978130 RMS(Int)=    0.0223833933
done
Storing new coordinates                 .... done

                                .--------------------.
          ----------------------|Geometry convergence|-------------------------
          Item                value                   Tolerance       Converged
          ---------------------------------------------------------------------
          RMS gradient        0.0185965208            0.0001000000      NO
          MAX gradient        0.0471362317            0.0003000000      NO
          RMS step            0.0223829583            0.0020000000      NO
          MAX step            0.0422637971            0.0040000000      NO
          ........................................................
          Max(Bonds)      0.0224      Max(Angles)    0.20
          Max(Dihed)        0.00      Max(Improp)    0.00
          ---------------------------------------------------------------------

The optimization has not yet converged - more geometry cycles are needed


    ---------------------------------------------------------------------------
                         Redundant Internal Coordinates
                            (Angstroem and degrees)

        Definition                    Value    dE/dq     Step     New-Value
    ----------------------------------------------------------------------------
     1. B(O   1,C   0)                1.2029  0.047136 -0.0224    1.1805   
     2. B(H   2,C   0)                1.1075  0.009930 -0.0154    1.0921   
     3. B(H   3,C   0)                1.1075  0.009930 -0.0154    1.0921   
     4. A(O   1,C   0,H   3)          122.02  0.000546   -0.10    121.92   
     5. A(H   2,C   0,H   3)          115.97 -0.001091    0.20    116.16   
     6. A(O   1,C   0,H   2)          122.02  0.000546   -0.10    121.92   
     7. I(O   1,H   3,H   2,C   0)      0.00 -0.000000    0.00      0.00   
    ----------------------------------------------------------------------------

Geometry step timings:
Preparation and reading OPT file:      0.000 s (15.686 %)
Internal coordinates            :      0.000 s ( 4.078 %)
B/P matrices and projection     :      0.000 s (14.902 %)
Hessian update/contruction      :      0.000 s (14.980 %)
Making the step                 :      0.000 s (10.431 %)
Converting the step to Cartesian:      0.000 s ( 4.784 %)
Storing new data                :      0.000 s ( 4.000 %)
Checking convergence            :      0.000 s ( 0.078 %)
Final printing                  :      0.000 s (30.588 %)
Total time                      :      0.001 s

Time for energy+gradient        :      1.128 s
Time for complete geometry iter :      1.156 s

         *************************************************************
         *                GEOMETRY OPTIMIZATION CYCLE   2            *
         *************************************************************
---------------------------------
CARTESIAN COORDINATES (ANGSTROEM)
---------------------------------
  C      0.000709   -0.000000    0.000000
  O      1.181244    0.000000   -0.000000
  H     -0.576674    0.926940   -0.000000
  H     -0.576674   -0.926940   -0.000000

----------------------------
CARTESIAN COORDINATES (A.U.)
----------------------------
  NO LB      ZA    FRAG     MASS         X           Y           Z
   0 C     6.0000    0    12.011    0.001339   -0.000000    0.000000
   1 O     8.0000    0    15.999    2.232227    0.000000   -0.000000
   2 H     1.0000    0     1.008   -1.089756    1.751662   -0.000000
   3 H     1.0000    0     1.008   -1.089756   -1.751662   -0.000000

--------------------------------
INTERNAL COORDINATES (ANGSTROEM)
--------------------------------
 C      0   0   0     0.000000000000     0.00000000     0.00000000
 O      1   0   0     1.180534961816     0.00000000     0.00000000
 H      1   2   0     1.092056775858   121.91842871     0.00000000
 H      1   2   3     1.092056775858   121.91842871   180.00000000

---------------------------
INTERNAL COORDINATES (A.U.)
---------------------------
 C      0   0   0     0.000000000000     0.00000000     0.00000000
 O      1   0   0     2.230887769352     0.00000000     0.00000000
 H      1   2   0     2.063688229066   121.91842871     0.00000000
 H      1   2   3     2.063688229065   121.91842871   180.00000000

------------------------------------------------------------------------------
                   ___                                                        
                  /   \      - P O W E R E D   B Y -                         
                 /     \                                                     
                 |  |  |   _    _      __       _____    __    __             
                 |  |  |  | |  | |    /  \     |  _  \  |  |  /  |          
                  \  \/   | |  | |   /    \    | | | |  |  | /  /          
                 / \  \   | |__| |  /  /\  \   | |_| |  |  |/  /          
                |  |  |   |  __  | /  /__\  \  |    /   |      \           
                |  |  |   | |  | | |   __   |  |    \   |  |\   \          
                \     /   | |  | | |  |  |  |  | |\  \  |  | \   \       
                 \___/    |_|  |_| |__|  |__|  |_| \__\ |__|  \__/        
                                                                              
                      - O R C A' S   B I G   F R I E N D -                    
                                      &                                       
                       - I N T E G R A L  F E E D E R -                       
                                                                              
 v1 FN, 2020, v2 2021, v3 2022-2024                                           
------------------------------------------------------------------------------


----------------------
SHARK INTEGRAL PACKAGE
----------------------

Number of atoms                             ...      4
Number of basis functions                   ...     48
Number of shells                            ...     24
Maximum angular momentum                    ...      2
Integral batch strategy                     ... SHARK/LIBINT Hybrid
RI-J (if used) integral strategy            ... SPLIT-RIJ (Revised 2003 algorithm where possible)
Printlevel                                  ...      1
Contraction scheme used                     ... SEGMENTED contraction
Prescreening option                         ... SCHWARTZ
   Thresh                                   ... 2.500e-11
   Tcut                                     ... 2.500e-12
   Tpresel                                  ... 2.500e-12 
Coulomb Range Separation                    ... NOT USED
Exchange Range Separation                   ... NOT USED
Multipole approximations                    ... NOT USED
Finite Nucleus Model                        ... NOT USED
CABS basis                                  ... NOT available
Auxiliary Coulomb fitting basis             ... NOT available
Auxiliary J/K fitting basis                 ... NOT available
Auxiliary Correlation fitting basis         ... NOT available
Auxiliary 'external' fitting basis          ... NOT available

Checking pre-screening integrals            ... done (  0.0 sec) Dimension = 24
Check shell pair data                       ... done (  0.0 sec)
Shell pair information
Shell pair cut-off parameter TPreSel        ...   2.5e-12
Total number of shell pairs                 ...       300
Shell pairs after pre-screening             ...       300
Total number of primitive shell pairs       ...      1129
Primitive shell pairs kept                  ...      1004
          la=0 lb=0:    105 shell pairs
          la=1 lb=0:    112 shell pairs
          la=1 lb=1:     36 shell pairs
          la=2 lb=0:     28 shell pairs
          la=2 lb=1:     16 shell pairs
          la=2 lb=2:      3 shell pairs

Calculating one electron integrals          ... done (  0.0 sec)
Calculating Nuclear repulsion               ... done (  0.0 sec) ENN=     31.876774212747 Eh

Diagonalization of the overlap matrix:
Smallest eigenvalue                        ... 1.267e-02
Time for diagonalization                   ...    0.000 sec
Threshold for overlap eigenvalues          ... 1.000e-07
Number of eigenvalues below threshold      ... 0
Time for construction of square roots      ...    0.000 sec
Total time needed                          ...    0.001 sec

-------------------
DFT GRID GENERATION
-------------------

General Integration Accuracy     IntAcc      ... 4.388
Radial Grid Type                 RadialGrid  ... OptM3 with GC (2021)
Angular Grid (max. ang.)         AngularGrid ... 4 (Lebedev-302)
Angular grid pruning method      GridPruning ... 4 (adaptive)
Weight generation scheme         WeightScheme... mBecke (2022)
Basis function cutoff            BFCut       ... 1.0000e-11
Integration weight cutoff        WCut        ... 1.0000e-14
Partially contracted basis set               ... off
Rotationally invariant grid construction     ... off
Angular grids for H and He will be reduced by one unit

Total number of grid points                  ...    18829
Total number of batches                      ...      296
Average number of points per batch           ...       63
Average number of grid points per atom       ...     4707
Initializing property integral containers    ... done (  0.0 sec)

SHARK setup successfully completed in   0.1 seconds

Maximum memory used throughout the entire STARTUP-calculation: 7.6 MB
Occupation numbers will be reassigned to an Aufbau configuration
             **** ENERGY FILE WAS UPDATED (h2o.en.tmp) ****
Finished Guess after   0.0 sec
Maximum memory used throughout the entire GUESS-calculation: 3.9 MB
----------------------------------------D-I-I-S--------------------------------------------
Iteration    Energy (Eh)           Delta-E    RMSDP     MaxDP     DIISErr   Damp  Time(sec)
-------------------------------------------------------------------------------------------
               ***  Starting incremental Fock matrix formation  ***
    1    -113.8986922729923776     0.00e+00  1.62e-04  1.60e-03  1.49e-02  0.700   0.0
    2    -113.8988118692284957    -1.20e-04  1.38e-04  1.38e-03  1.11e-02  0.700   0.0
                               ***Turning on AO-DIIS***
    3    -113.8988997764018052    -8.79e-05  1.22e-04  1.31e-03  8.14e-03  0.700   0.0
    4    -113.8989641780670468    -6.44e-05  3.38e-04  3.46e-03  6.09e-03  0.000   0.0
                              *** Initializing SOSCF ***
---------------------------------------S-O-S-C-F--------------------------------------
Iteration    Energy (Eh)           Delta-E    RMSDP     MaxDP     MaxGrad    Time(sec)
--------------------------------------------------------------------------------------
    5    -113.8991355123586970    -1.71e-04  5.15e-05  4.01e-04  7.71e-04     0.0
               *** Restarting incremental Fock matrix formation ***
    6    -113.8991369736872912    -1.46e-06  2.83e-05  2.44e-04  1.39e-04     0.0
    7    -113.8991371913906789    -2.18e-07  1.73e-05  1.64e-04  6.16e-05     0.0
    8    -113.8991372296054863    -3.82e-08  2.09e-06  3.05e-05  2.20e-05     0.0
    9    -113.8991372315352066    -1.93e-09  1.07e-06  1.20e-05  1.06e-05     0.0
                 **** Energy Check signals convergence ****

               *****************************************************
               *                     SUCCESS                       *
               *           SCF CONVERGED AFTER   9 CYCLES          *
               *****************************************************

             **** ENERGY FILE WAS UPDATED (h2o.en.tmp) ****

----------------
TOTAL SCF ENERGY
----------------

Total Energy       :       -113.89913723153521 Eh           -3099.35309 eV

Components:
Nuclear Repulsion  :         31.87677421274719 Eh             867.41112 eV
Electronic Energy  :       -145.77591144428240 Eh           -3966.76422 eV
One Electron Energy:       -218.51256548712428 Eh           -5946.02920 eV
Two Electron Energy:         72.73665404284188 Eh            1979.26498 eV

Virial components:
Potential Energy   :       -227.82226195975915 Eh           -6199.35892 eV
Kinetic Energy     :        113.92312472822395 Eh            3100.00583 eV
Virial Ratio       :          1.99978944137333

---------------
SCF CONVERGENCE
---------------

  Last Energy change         ...    1.9297e-09  Tolerance :   1.0000e-08
  Last MAX-Density change    ...    1.1996e-05  Tolerance :   1.0000e-07
  Last RMS-Density change    ...    1.0722e-06  Tolerance :   5.0000e-09
  Last DIIS Error            ...    7.7139e-04  Tolerance :   5.0000e-07
  Last Orbital Gradient      ...    1.0632e-05  Tolerance :   1.0000e-05
  Last Orbital Rotation      ...    6.4401e-06  Tolerance :   1.0000e-05


Total SCF time: 0 days 0 hours 0 min 0 sec 
Finished LeanSCF after   0.4 sec

Maximum memory used throughout the entire LEANSCF-calculation: 7.5 MB

------------------------------------------------------------------------------
                         ORCA PROPERTY INTEGRAL CALCULATIONS
------------------------------------------------------------------------------

GBWName                                   ... h2o.gbw
Number of atoms                           ...      4
Number of basis functions                 ...     48
Max core memory                           ...   1024 MB

Dipole integrals                          ... YES
Quadrupole integrals                      ...  NO
Linear momentum integrals                 ...  NO
Angular momentum integrals                ...  NO
Higher moments length integrals           ...  NO
Higher moments velocity integrals         ...  NO
Kinetic energy integrals                  ...  NO
GIAO right hand sides                     ...  NO
GIAO dipole derivative integrals          ...  NO
SOC integrals                             ...  NO
EPR diamagnetic integrals (GIAO)          ...  NO
EPR gauge integrals                       ...  NO
Field gradient integrals                  ...  NO (   0 nuclei)
Spin-dipole/Fermi contact integrals       ...  NO (   0 nuclei)
Contact density integrals                 ...  NO (   0 nuclei)
Nucleus-orbit integrals                   ...  NO (   0 nuclei)
Geometric perturbations                   ...  NO (   4 nuclei)

Choice of electric origin   ... Center of mass
Position of electric origin ... (  1.1168, -0.0000,  0.0000) 
Choice of magnetic origin   ... GIAO
Position of magnetic origin ... (  0.0000,  0.0000,  0.0000) 

Calculating integrals                     ... Electric Dipole (Length)     done (  0.0 sec)

Property integrals calculated in   0.0 sec

Maximum memory used throughout the entire PROPINT-calculation: 4.0 MB

-------------------------   --------------------
FINAL SINGLE POINT ENERGY      -113.899137231535
-------------------------   --------------------

------------------------------------------------------------------------------
                         ORCA SCF GRADIENT CALCULATION
------------------------------------------------------------------------------

Nuc. rep. gradient        (SHARK) ... done (  0.0 sec)
HCore & Overlap gradient  (SHARK) ... done (  0.0 sec)
Two-electron gradient     (SHARK) ... done (  0.2 sec)

------------------
CARTESIAN GRADIENT
------------------

   1   C   :   -0.005491001   -0.000000000    0.000000000
   2   O   :    0.002975647    0.000000000   -0.000000000
   3   H   :    0.001257677   -0.001146542   -0.000000000
   4   H   :    0.001257677    0.001146542   -0.000000000

Difference to translation invariance:
           :    0.0000000000   -0.0000000000    0.0000000000

Difference to rotation invariance:
           :    0.0000000000    0.0000000000    0.0000000000

Norm of the Cartesian gradient     ...    0.0066931445
RMS gradient                       ...    0.0019321444
MAX gradient                       ...    0.0054910008

-------
TIMINGS
-------

Total SCF gradient time     ....        0.183 sec

Densities                   ....       0.000 sec  (  0.0%)
One electron gradient       ....       0.007 sec  (  4.0%)
Two electron gradient       ....       0.176 sec  ( 96.0%)

Maximum memory used throughout the entire SCFGRAD-calculation: 13.2 MB
------------------------------------------------------------------------------
                         ORCA GEOMETRY RELAXATION STEP
------------------------------------------------------------------------------

Reading the OPT-File                    .... done
Getting information on internals        .... done
Copying old internal coords+grads       .... done
Making the new internal coordinates     .... (2022 redundants) done
Validating the new internal coordinates .... (2022 redundants) done
Calculating the B-matrix                .... done
Calculating the G,G- and P matrices     .... done
Transforming gradient to internals      .... done
Projecting the internal gradient        .... done
Number of atoms                         ....   4
Number of internal coordinates          ....   7
Current Energy                          ....  -113.899137232 Eh
Current gradient norm                   ....     0.006693144 Eh/bohr
Maximum allowed component of the step   ....  0.300
Current trust radius                    ....  0.300
Updating the Hessian (BFGS)             .... done
Forming the augmented Hessian           .... done
Diagonalizing the augmented Hessian     .... done
Last element of RFO vector              ....  0.999970941
Lowest eigenvalues of augmented Hessian:
 -0.000026305  0.113050103  0.317986552  0.337678172  0.366507002
Length of the computed step             ....  0.007623729
The final length of the internal step   ....  0.007623729
Converting the step to Cartesian space:
 Initial RMS(Int)=    0.0028814985
Transforming coordinates:
 Iter   0:  RMS(Cart)=    0.0015181745 RMS(Int)=    0.0028813104
done
Storing new coordinates                 .... done
The predicted energy change is          ....    -0.000013153
Previously predicted energy change      ....    -0.001293172
Actually observed energy change         ....    -0.001329609
Ratio of predicted to observed change   ....     1.028176425
New trust radius                        ....     0.450000000

                                .--------------------.
          ----------------------|Geometry convergence|-------------------------
          Item                value                   Tolerance       Converged
          ---------------------------------------------------------------------
          Energy change      -0.0013296090            0.0000050000      NO
          RMS gradient        0.0014553201            0.0001000000      NO
          MAX gradient        0.0029756465            0.0003000000      NO
          RMS step            0.0028814985            0.0020000000      NO
          MAX step            0.0046033047            0.0040000000      NO
          ........................................................
          Max(Bonds)      0.0024      Max(Angles)    0.11
          Max(Dihed)        0.00      Max(Improp)    0.00
          ---------------------------------------------------------------------

The optimization has not yet converged - more geometry cycles are needed


    ---------------------------------------------------------------------------
                         Redundant Internal Coordinates
                            (Angstroem and degrees)

        Definition                    Value    dE/dq     Step     New-Value
    ----------------------------------------------------------------------------
     1. B(O   1,C   0)                1.1805  0.002976 -0.0017    1.1789   
     2. B(H   2,C   0)                1.0921 -0.001638  0.0024    1.0945   
     3. B(H   3,C   0)                1.0921 -0.001638  0.0024    1.0945   
     4. A(O   1,C   0,H   3)          121.92 -0.000317    0.06    121.98   
     5. A(H   2,C   0,H   3)          116.16  0.000635   -0.11    116.05   
     6. A(O   1,C   0,H   2)          121.92 -0.000317    0.06    121.98   
     7. I(O   1,H   3,H   2,C   0)      0.00  0.000000   -0.00     -0.00   
    ----------------------------------------------------------------------------

Geometry step timings:
Preparation and reading OPT file:      0.000 s (14.235 %)
Internal coordinates            :      0.000 s ( 3.683 %)
B/P matrices and projection     :      0.000 s (13.952 %)
Hessian update/contruction      :      0.000 s (21.246 %)
Making the step                 :      0.000 s ( 8.499 %)
Converting the step to Cartesian:      0.000 s ( 3.683 %)
Storing new data                :      0.000 s ( 3.541 %)
Checking convergence            :      0.000 s ( 1.912 %)
Final printing                  :      0.000 s (29.037 %)
Total time                      :      0.001 s

Time for energy+gradient        :      0.792 s
Time for complete geometry iter :      0.811 s

         *************************************************************
         *                GEOMETRY OPTIMIZATION CYCLE   3            *
         *************************************************************
---------------------------------
CARTESIAN COORDINATES (ANGSTROEM)
---------------------------------
  C      0.002228   -0.000000   -0.000000
  O      1.181103    0.000000    0.000000
  H     -0.577363    0.928433    0.000000
  H     -0.577363   -0.928433    0.000000

----------------------------
CARTESIAN COORDINATES (A.U.)
----------------------------
  NO LB      ZA    FRAG     MASS         X           Y           Z
   0 C     6.0000    0    12.011    0.004211   -0.000000   -0.000000
   1 O     8.0000    0    15.999    2.231961    0.000000    0.000000
   2 H     1.0000    0     1.008   -1.091059    1.754484    0.000000
   3 H     1.0000    0     1.008   -1.091059   -1.754484    0.000000

--------------------------------
INTERNAL COORDINATES (ANGSTROEM)
--------------------------------
 C      0   0   0     0.000000000000     0.00000000     0.00000000
 O      1   0   0     1.178874761358     0.00000000     0.00000000
 H      1   2   0     1.094492739813   121.97523348     0.00000000
 H      1   2   3     1.094492739813   121.97523348   180.00000000

---------------------------
INTERNAL COORDINATES (A.U.)
---------------------------
 C      0   0   0     0.000000000000     0.00000000     0.00000000
 O      1   0   0     2.227750445158     0.00000000     0.00000000
 H      1   2   0     2.068291533811   121.97523348     0.00000000
 H      1   2   3     2.068291533812   121.97523348   180.00000000

------------------------------------------------------------------------------
                   ___                                                        
                  /   \      - P O W E R E D   B Y -                         
                 /     \                                                     
                 |  |  |   _    _      __       _____    __    __             
                 |  |  |  | |  | |    /  \     |  _  \  |  |  /  |          
                  \  \/   | |  | |   /    \    | | | |  |  | /  /          
                 / \  \   | |__| |  /  /\  \   | |_| |  |  |/  /          
                |  |  |   |  __  | /  /__\  \  |    /   |      \           
                |  |  |   | |  | | |   __   |  |    \   |  |\   \          
                \     /   | |  | | |  |  |  |  | |\  \  |  | \   \       
                 \___/    |_|  |_| |__|  |__|  |_| \__\ |__|  \__/        
                                                                              
                      - O R C A' S   B I G   F R I E N D -                    
                                      &                                       
                       - I N T E G R A L  F E E D E R -                       
                                                                              
 v1 FN, 2020, v2 2021, v3 2022-2024                                           
------------------------------------------------------------------------------


----------------------
SHARK INTEGRAL PACKAGE
----------------------

Number of atoms                             ...      4
Number of basis functions                   ...     48
Number of shells                            ...     24
Maximum angular momentum                    ...      2
Integral batch strategy                     ... SHARK/LIBINT Hybrid
RI-J (if used) integral strategy            ... SPLIT-RIJ (Revised 2003 algorithm where possible)
Printlevel                                  ...      1
Contraction scheme used                     ... SEGMENTED contraction
Prescreening option                         ... SCHWARTZ
   Thresh                                   ... 2.500e-11
   Tcut                                     ... 2.500e-12
   Tpresel                                  ... 2.500e-12 
Coulomb Range Separation                    ... NOT USED
Exchange Range Separation                   ... NOT USED
Multipole approximations                    ... NOT USED
Finite Nucleus Model                        ... NOT USED
CABS basis                                  ... NOT available
Auxiliary Coulomb fitting basis             ... NOT available
Auxiliary J/K fitting basis                 ... NOT available
Auxiliary Correlation fitting basis         ... NOT available
Auxiliary 'external' fitting basis          ... NOT available

Checking pre-screening integrals            ... done (  0.0 sec) Dimension = 24
Check shell pair data                       ... done (  0.0 sec)
Shell pair information
Shell pair cut-off parameter TPreSel        ...   2.5e-12
Total number of shell pairs                 ...       300
Shell pairs after pre-screening             ...       300
Total number of primitive shell pairs       ...      1129
Primitive shell pairs kept                  ...      1004
          la=0 lb=0:    105 shell pairs
          la=1 lb=0:    112 shell pairs
          la=1 lb=1:     36 shell pairs
          la=2 lb=0:     28 shell pairs
          la=2 lb=1:     16 shell pairs
          la=2 lb=2:      3 shell pairs

Calculating one electron integrals          ... done (  0.0 sec)
Calculating Nuclear repulsion               ... done (  0.0 sec) ENN=     31.891141651058 Eh

Diagonalization of the overlap matrix:
Smallest eigenvalue                        ... 1.263e-02
Time for diagonalization                   ...    0.000 sec
Threshold for overlap eigenvalues          ... 1.000e-07
Number of eigenvalues below threshold      ... 0
Time for construction of square roots      ...    0.000 sec
Total time needed                          ...    0.001 sec

-------------------
DFT GRID GENERATION
-------------------

General Integration Accuracy     IntAcc      ... 4.388
Radial Grid Type                 RadialGrid  ... OptM3 with GC (2021)
Angular Grid (max. ang.)         AngularGrid ... 4 (Lebedev-302)
Angular grid pruning method      GridPruning ... 4 (adaptive)
Weight generation scheme         WeightScheme... mBecke (2022)
Basis function cutoff            BFCut       ... 1.0000e-11
Integration weight cutoff        WCut        ... 1.0000e-14
Partially contracted basis set               ... off
Rotationally invariant grid construction     ... off
Angular grids for H and He will be reduced by one unit

Total number of grid points                  ...    18828
Total number of batches                      ...      296
Average number of points per batch           ...       63
Average number of grid points per atom       ...     4707
Initializing property integral containers    ... done (  0.0 sec)

SHARK setup successfully completed in   0.1 seconds

Maximum memory used throughout the entire STARTUP-calculation: 7.6 MB
Occupation numbers will be reassigned to an Aufbau configuration
             **** ENERGY FILE WAS UPDATED (h2o.en.tmp) ****
Finished Guess after   0.0 sec
Maximum memory used throughout the entire GUESS-calculation: 3.9 MB
----------------------------------------D-I-I-S--------------------------------------------
Iteration    Energy (Eh)           Delta-E    RMSDP     MaxDP     DIISErr   Damp  Time(sec)
-------------------------------------------------------------------------------------------
               ***  Starting incremental Fock matrix formation  ***
                              *** Initializing SOSCF ***
---------------------------------------S-O-S-C-F--------------------------------------
Iteration    Energy (Eh)           Delta-E    RMSDP     MaxDP     MaxGrad    Time(sec)
--------------------------------------------------------------------------------------
    1    -113.8991465724393493     0.00e+00  5.85e-05  4.04e-04  1.10e-04     0.0
               *** Restarting incremental Fock matrix formation ***
    2    -113.8991512590320099    -4.69e-06  3.24e-05  3.25e-04  3.00e-04     0.0
    3    -113.8991520036951783    -7.45e-07  2.09e-05  1.59e-04  1.23e-04     0.0
    4    -113.8991521272211571    -1.24e-07  4.76e-06  4.34e-05  5.07e-05     0.0
    5    -113.8991521439663472    -1.67e-08  1.16e-06  1.05e-05  4.44e-06     0.0
    6    -113.8991521442827946    -3.16e-10  5.74e-07  5.23e-06  2.35e-06     0.0
                 **** Energy Check signals convergence ****

               *****************************************************
               *                     SUCCESS                       *
               *           SCF CONVERGED AFTER   6 CYCLES          *
               *****************************************************

             **** ENERGY FILE WAS UPDATED (h2o.en.tmp) ****

----------------
TOTAL SCF ENERGY
----------------

Total Energy       :       -113.89915214428279 Eh           -3099.35350 eV

Components:
Nuclear Repulsion  :         31.89114165105809 Eh             867.80208 eV
Electronic Energy  :       -145.79029379534089 Eh           -3967.15558 eV
One Electron Energy:       -218.53858886082833 Eh           -5946.73733 eV
Two Electron Energy:         72.74829506548744 Eh            1979.58175 eV

Virial components:
Potential Energy   :       -227.82234959399668 Eh           -6199.36130 eV
Kinetic Energy     :        113.92319744971388 Eh            3100.00780 eV
Virial Ratio       :          1.99978893407164

---------------
SCF CONVERGENCE
---------------

  Last Energy change         ...    3.1645e-10  Tolerance :   1.0000e-08
  Last MAX-Density change    ...    5.2307e-06  Tolerance :   1.0000e-07
  Last RMS-Density change    ...    5.7408e-07  Tolerance :   5.0000e-09
  Last DIIS Error            ...    1.2285e-03  Tolerance :   5.0000e-07
  Last Orbital Gradient      ...    2.3529e-06  Tolerance :   1.0000e-05
  Last Orbital Rotation      ...    4.7133e-06  Tolerance :   1.0000e-05


Total SCF time: 0 days 0 hours 0 min 0 sec 
Finished LeanSCF after   0.3 sec

Maximum memory used throughout the entire LEANSCF-calculation: 7.5 MB

------------------------------------------------------------------------------
                         ORCA PROPERTY INTEGRAL CALCULATIONS
------------------------------------------------------------------------------

GBWName                                   ... h2o.gbw
Number of atoms                           ...      4
Number of basis functions                 ...     48
Max core memory                           ...   1024 MB

Dipole integrals                          ... YES
Quadrupole integrals                      ...  NO
Linear momentum integrals                 ...  NO
Angular momentum integrals                ...  NO
Higher moments length integrals           ...  NO
Higher moments velocity integrals         ...  NO
Kinetic energy integrals                  ...  NO
GIAO right hand sides                     ...  NO
GIAO dipole derivative integrals          ...  NO
SOC integrals                             ...  NO
EPR diamagnetic integrals (GIAO)          ...  NO
EPR gauge integrals                       ...  NO
Field gradient integrals                  ...  NO (   0 nuclei)
Spin-dipole/Fermi contact integrals       ...  NO (   0 nuclei)
Contact density integrals                 ...  NO (   0 nuclei)
Nucleus-orbit integrals                   ...  NO (   0 nuclei)
Geometric perturbations                   ...  NO (   4 nuclei)

Choice of electric origin   ... Center of mass
Position of electric origin ... (  1.1177,  0.0000, -0.0000) 
Choice of magnetic origin   ... GIAO
Position of magnetic origin ... (  0.0000,  0.0000,  0.0000) 

Calculating integrals                     ... Electric Dipole (Length)     done (  0.0 sec)

Property integrals calculated in   0.0 sec

Maximum memory used throughout the entire PROPINT-calculation: 4.0 MB

-------------------------   --------------------
FINAL SINGLE POINT ENERGY      -113.899152144283
-------------------------   --------------------

------------------------------------------------------------------------------
                         ORCA SCF GRADIENT CALCULATION
------------------------------------------------------------------------------

Nuc. rep. gradient        (SHARK) ... done (  0.0 sec)
HCore & Overlap gradient  (SHARK) ... done (  0.0 sec)
Two-electron gradient     (SHARK) ... done (  0.2 sec)

------------------
CARTESIAN GRADIENT
------------------

   1   C   :   -0.000988815    0.000000000   -0.000000000
   2   O   :    0.000123941   -0.000000000    0.000000000
   3   H   :    0.000432437    0.000087849    0.000000000
   4   H   :    0.000432437   -0.000087849    0.000000000

Difference to translation invariance:
           :    0.0000000000    0.0000000000   -0.0000000000

Difference to rotation invariance:
           :    0.0000000000   -0.0000000000   -0.0000000000

Norm of the Cartesian gradient     ...    0.0011758209
RMS gradient                       ...    0.0003394303
MAX gradient                       ...    0.0009888149

-------
TIMINGS
-------

Total SCF gradient time     ....        0.185 sec

Densities                   ....       0.000 sec  (  0.0%)
One electron gradient       ....       0.007 sec  (  4.0%)
Two electron gradient       ....       0.177 sec  ( 95.9%)

Maximum memory used throughout the entire SCFGRAD-calculation: 13.2 MB
------------------------------------------------------------------------------
                         ORCA GEOMETRY RELAXATION STEP
------------------------------------------------------------------------------

Reading the OPT-File                    .... done
Getting information on internals        .... done
Copying old internal coords+grads       .... done
Making the new internal coordinates     .... (2022 redundants) done
Validating the new internal coordinates .... (2022 redundants) done
Calculating the B-matrix                .... done
Calculating the G,G- and P matrices     .... done
Transforming gradient to internals      .... done
Projecting the internal gradient        .... done
Number of atoms                         ....   4
Number of internal coordinates          ....   7
Current Energy                          ....  -113.899152144 Eh
Current gradient norm                   ....     0.001175821 Eh/bohr
Maximum allowed component of the step   ....  0.300
Current trust radius                    ....  0.450
Updating the Hessian (BFGS)             .... done
Forming the augmented Hessian           .... done
Diagonalizing the augmented Hessian     .... done
Last element of RFO vector              ....  0.999995816
Lowest eigenvalues of augmented Hessian:
 -0.000002139  0.113050103  0.252916545  0.337678172  0.383465051
Length of the computed step             ....  0.002892808
The final length of the internal step   ....  0.002892808
Converting the step to Cartesian space:
 Initial RMS(Int)=    0.0010933785
Transforming coordinates:
 Iter   0:  RMS(Cart)=    0.0006565940 RMS(Int)=    0.0010932824
done
Storing new coordinates                 .... done
The predicted energy change is          ....    -0.000001070
Previously predicted energy change      ....    -0.000013153
Actually observed energy change         ....    -0.000014913
Ratio of predicted to observed change   ....     1.133768003
New trust radius                        ....     0.675000000

                                .--------------------.
          ----------------------|Geometry convergence|-------------------------
          Item                value                   Tolerance       Converged
          ---------------------------------------------------------------------
          Energy change      -0.0000149127            0.0000050000      NO
          RMS gradient        0.0002803951            0.0001000000      NO
          MAX gradient        0.0005699484            0.0003000000      NO
          RMS step            0.0010933785            0.0020000000      YES
          MAX step            0.0021777582            0.0040000000      YES
          ........................................................
          Max(Bonds)      0.0004      Max(Angles)    0.12
          Max(Dihed)        0.00      Max(Improp)    0.00
          ---------------------------------------------------------------------

The optimization has not yet converged - more geometry cycles are needed


    ---------------------------------------------------------------------------
                         Redundant Internal Coordinates
                            (Angstroem and degrees)

        Definition                    Value    dE/dq     Step     New-Value
    ----------------------------------------------------------------------------
     1. B(O   1,C   0)                1.1789  0.000124 -0.0002    1.1787   
     2. B(H   2,C   0)                1.0945 -0.000154  0.0004    1.0949   
     3. B(H   3,C   0)                1.0945 -0.000154  0.0004    1.0949   
     4. A(O   1,C   0,H   3)          121.98 -0.000285    0.06    122.04   
     5. A(H   2,C   0,H   3)          116.05  0.000570   -0.12    115.92   
     6. A(O   1,C   0,H   2)          121.98 -0.000285    0.06    122.04   
     7. I(O   1,H   3,H   2,C   0)     -0.00 -0.000000    0.00      0.00   
    ----------------------------------------------------------------------------

Geometry step timings:
Preparation and reading OPT file:      0.000 s (18.509 %)
Internal coordinates            :      0.000 s ( 3.336 %)
B/P matrices and projection     :      0.000 s (12.034 %)
Hessian update/contruction      :      0.000 s (19.555 %)
Making the step                 :      0.000 s ( 7.783 %)
Converting the step to Cartesian:      0.000 s ( 3.466 %)
Storing new data                :      0.000 s ( 3.401 %)
Checking convergence            :      0.000 s ( 1.766 %)
Final printing                  :      0.000 s (29.889 %)
Total time                      :      0.002 s

Time for energy+gradient        :      0.676 s
Time for complete geometry iter :      0.692 s

         *************************************************************
         *                GEOMETRY OPTIMIZATION CYCLE   4            *
         *************************************************************
---------------------------------
CARTESIAN COORDINATES (ANGSTROEM)
---------------------------------
  C      0.002888   -0.000000    0.000000
  O      1.181562    0.000000   -0.000000
  H     -0.577923    0.928136   -0.000000
  H     -0.577923   -0.928136   -0.000000

----------------------------
CARTESIAN COORDINATES (A.U.)
----------------------------
  NO LB      ZA    FRAG     MASS         X           Y           Z
   0 C     6.0000    0    12.011    0.005458   -0.000000    0.000000
[...]
Number of atoms                         ...      4
Number of basis functions               ...     48
Max core memory                         ...   1024 MB

Electric field perturbation             ...  NO
Quadrupolar field perturbation          ...  NO
Magnetic field perturbation (no GIAO)   ...  NO
Magnetic field perturbation (with GIAO) ...  NO
Linear momentum (velocity) perturbation ...  NO
Spin-orbit coupling perturbation        ...  NO
Choice of electric origin               ... Center of mass
Position of electric origin             ...     1.119312     0.000000     0.000000
Choice of magnetic origin               ... GIAO
Position of magnetic origin             ...     0.000000     0.000000     0.000000
Nuclear geometric perturbations         ... YES (  12 perturbations)
Nucleus-orbit perturbations             ...  NO (   0 perturbations)
Spin-dipole/Fermi contact perturbations ...  NO (   0 perturbations)

Total number of real perturbations      ...     12
Total number of imaginary perturbations ...      0
Total number of triplet perturbations   ...      0
Total number of SOC perturbations       ...      0


                                **********************
                                * REAL PERTURBATIONS *
                                **********************



-------------------
SHARK CP-SCF DRIVER
-------------------

Dimension of the orbital basis          ...     48
Dimension of the CPSCF-problem          ...    320
Number of operators                     ...      1
Max. number of iterations               ...    128
Convergence Tolerance                   ... 1.0e-04
Number of perturbations                 ...     12
Perturbation type                       ... REAL

----------------------------
POPLE LINEAR EQUATION SOLVER
----------------------------

  ITERATION   0:   ||err||_max =   1.2303e-01 (   0.2 sec   0/ 12 done)
  ITERATION   1:   ||err||_max =   3.2287e-02 (   0.2 sec   0/ 12 done)
  ITERATION   2:   ||err||_max =   8.7666e-03 (   0.2 sec   0/ 12 done)
  ITERATION   3:   ||err||_max =   1.5829e-03 (   0.2 sec   1/ 12 done)
  ITERATION   4:   ||err||_max =   4.2532e-04 (   0.2 sec   3/ 12 done)
  ITERATION   5:   ||err||_max =   1.2380e-04 (   0.1 sec  11/ 12 done)
  ITERATION   6:   ||err||_max =   2.1719e-05 (   0.1 sec  12/ 12 done)

CP-SCF equations solved in   1.0 sec
Response densities calculated in   0.0 sec

Maximum memory used throughout the entire SCFRESP-calculation: 7.8 MB

------------------------------------------------------------------------------
                              ORCA PROPERTY CALCULATIONS
------------------------------------------------------------------------------

GBWName                                 ... h2o.gbw
Number of atoms                         ...      4
Number of basis functions               ...     48
Max core memory                         ...   1024 MB

Electric properties:
Dipole moment                           ... YES
Quadrupole moment                       ...  NO
Static polarizability (Dipole/Dipole)   ...  NO
Static polarizability (Dipole/Quad.)    ...  NO
Static polarizability (Quad./Quad.)     ...  NO
Static polarizability (Velocity)        ...  NO

Atomic electric properties:
Dipole moment                           ...  NO
Quadrupole moment                       ...  NO
Static polarizability                   ...  NO

Choice of electric origin               ... Center of mass
Position of electric origin             ...     1.119312     0.000000     0.000000

General magnetic properties:
Magnetizability                         ...  NO

EPR properties:
g-Tensor (aka g-matrix)                 ...  NO
Zero-Field splitting spin-orbit         ...  NO
Zero-field splitting spin-spin          ...  NO
Hyperfine couplings                     ...  NO (   0 nuclei)
Quadrupole couplings                    ...  NO (   0 nuclei)
Contact density                         ...  NO (   0 nuclei)

NMR properties:
Chemical shifts                         ...  NO (   0 nuclei)
Spin-rotation constants                 ...  NO (   0 nuclei)
Spin-spin couplings                     ...  NO (   0 nuclei,    0 pairs)

Choice of magnetic origin               ... GIAO
Position of magnetic origin             ...     0.000000     0.000000     0.000000

Properties with geometric perturbations:
SCF Hessian                             ... YES
IR spectrum                             ... YES
VCD spectrum                            ...  NO
X-ray spectroscopy properties:
SCF XES/XAS/RIXS spectra                ...  NO


-------------
DIPOLE MOMENT
-------------

Method             : SCF
Type of density    : Electron Density
Multiplicity       :   1
Irrep              :   0
Energy             :  -113.8991540417232073 Eh
Relativity type    : 
Basis              : AO
                                X                 Y                 Z
Electronic contribution:      1.144861741       0.000000000       0.000000000
Nuclear contribution   :     -2.187884728      -0.000000000      -0.000000000
                        -----------------------------------------
Total Dipole Moment    :     -1.043022987      -0.000000000       0.000000000
                        -----------------------------------------
Magnitude (a.u.)       :      1.043022987
Magnitude (Debye)      :      2.651153742



--------------------
Rotational spectrum 
--------------------
 
Rotational constants in cm-1:             9.719657             1.349419             1.184913 
Rotational constants in MHz :        291387.975339         40454.572999         35522.798925 

Dipole components along the rotational axes: 
x,y,z [a.u.] :     1.043023    -0.000000    -0.000000 
x,y,z [Debye]:     2.651154    -0.000000    -0.000000 

 

Dipole moment calculation done in   0.0 sec 

-----------
SCF HESSIAN
-----------

Occupied/Occupied contributions to the Hessian:
   => Occupied/Occupied contributions              ... done (  0.0 sec)
Perturbed density contributions to the Hessian:
   => Perturbed density contributions              ... done (  0.0 sec)
Explicit contributions to the Hessian:
   => Nuclear repulsion Hessian                    ... done (  0.0 sec)
   => HCore and overlap Hessian                    ... done (  0.1 sec)
   => Exact two electron integral Hessian          ... done (  1.4 sec)
   => Explicit contributions done
Dipole derivatives                                 ... done (  0.0 sec)
Mass weighting the Hessian           ... done
Calculating normal modes             ... done
Scaling frequencies                  ... done

-----------------------
VIBRATIONAL FREQUENCIES
-----------------------

Scaling factor for frequencies =  1.000000000  (already applied!)

     0:       0.00 cm**-1
     1:       0.00 cm**-1
     2:       0.00 cm**-1
     3:       0.00 cm**-1
     4:       0.00 cm**-1
     5:       0.00 cm**-1
     6:    1337.10 cm**-1
     7:    1372.19 cm**-1
     8:    1656.58 cm**-1
     9:    2005.96 cm**-1
    10:    3091.57 cm**-1
    11:    3159.91 cm**-1


------------
NORMAL MODES
------------

These modes are the Cartesian displacements weighted by the diagonal matrix
M(i,i)=1/sqrt(m[i]) where m[i] is the mass of the displaced atom
Thus, these vectors are normalized but *not* orthogonal

                  0          1          2          3          4          5    
      0       0.000000   0.000000   0.000000   0.000000   0.000000   0.000000
      1       0.000000   0.000000   0.000000   0.000000   0.000000   0.000000
      2       0.000000   0.000000   0.000000   0.000000   0.000000   0.000000
      3       0.000000   0.000000   0.000000   0.000000   0.000000   0.000000
      4       0.000000   0.000000   0.000000   0.000000   0.000000   0.000000
      5       0.000000   0.000000   0.000000   0.000000   0.000000   0.000000
      6       0.000000   0.000000   0.000000   0.000000   0.000000   0.000000
      7       0.000000   0.000000   0.000000   0.000000   0.000000   0.000000
      8       0.000000   0.000000   0.000000   0.000000   0.000000   0.000000
      9       0.000000   0.000000   0.000000   0.000000   0.000000   0.000000
     10       0.000000   0.000000   0.000000   0.000000   0.000000   0.000000
     11       0.000000   0.000000   0.000000   0.000000   0.000000   0.000000
                  6          7          8          9         10         11    
      0      -0.000000  -0.000000  -0.001950  -0.601750  -0.060614  -0.000000
      1       0.000000  -0.149346   0.000000   0.000000   0.000000  -0.100621
      2       0.174376   0.000000  -0.000000   0.000000  -0.000000  -0.000000
      3      -0.000000  -0.000000  -0.075443   0.432503   0.000989   0.000000
      4      -0.000000   0.080140  -0.000000   0.000000  -0.000000   0.000279
      5      -0.043259  -0.000000   0.000000  -0.000000  -0.000000   0.000000
      6       0.000000   0.649023   0.610329   0.152779   0.353279  -0.371766
      7      -0.000000   0.253784   0.353058   0.449530  -0.611029   0.597267
      8      -0.695601  -0.000000   0.000000   0.000000   0.000000  -0.000000
      9       0.000000  -0.649023   0.610329   0.152779   0.353279   0.371766
     10       0.000000   0.253784  -0.353058  -0.449530   0.611029   0.597267
     11      -0.695601   0.000000   0.000000   0.000000   0.000000   0.000000


-----------
IR SPECTRUM
-----------

 Mode   freq       eps      Int      T**2         TX        TY        TZ
       cm**-1   L/(mol*cm) km/mol    a.u.
----------------------------------------------------------------------------
  6:   1337.10   0.000168    0.85  0.000039  ( 0.000000  0.000000 -0.006265)
  7:   1372.19   0.004994   25.24  0.001136  ( 0.000000 -0.033700  0.000000)
  8:   1656.58   0.002676   13.53  0.000504  ( 0.022453  0.000000 -0.000000)
  9:   2005.96   0.031327  158.31  0.004874  (-0.069811  0.000000 -0.000000)
 10:   3091.57   0.010997   55.57  0.001110  (-0.033317  0.000000  0.000000)
 11:   3159.91   0.025921  130.99  0.002560  (-0.000000 -0.050595 -0.000000)

* The epsilon (eps) is given for a Dirac delta lineshape.
** The dipole moment derivative (T) already includes vibrational overlap.

The first frequency considered to be a vibration is 6
The total number of vibrations considered is 6


--------------------------
THERMOCHEMISTRY AT 298.15K
--------------------------

Temperature         ...   298.15 K
Pressure            ...     1.00 atm
Total Mass          ...    30.03 AMU
Quasi RRHO          ...     True
Cut-Off Frequency   ...     1.00 cm^-1

Throughout the following assumptions are being made:
  (1) The electronic state is orbitally nondegenerate
  (2) There are no thermally accessible electronically excited states
  (3) Hindered rotations indicated by low frequency modes are not
      treated as such but are treated as vibrations and this may
      cause some error
  (4) All equations used are the standard statistical mechanics
      equations for an ideal gas
  (5) All vibrations are strictly harmonic

freq.    1337.10  E(vib)   ...       0.01 
freq.    1372.19  E(vib)   ...       0.01 
freq.    1656.58  E(vib)   ...       0.00 
freq.    2005.96  E(vib)   ...       0.00 
freq.    3091.57  E(vib)   ...       0.00 
freq.    3159.91  E(vib)   ...       0.00 

------------
INNER ENERGY
------------

The inner energy is: U= E(el) + E(ZPE) + E(vib) + E(rot) + E(trans)
    E(el)   - is the total energy from the electronic structure calculation
              = E(kin-el) + E(nuc-el) + E(el-el) + E(nuc-nuc)
    E(ZPE)  - the the zero temperature vibrational energy from the frequency calculation
    E(vib)  - the the finite temperature correction to E(ZPE) due to population
              of excited vibrational states
    E(rot)  - is the rotational thermal energy
    E(trans)- is the translational thermal energy

Summary of contributions to the inner energy U:
Electronic energy                ...   -113.89915404 Eh
Zero point energy                ...      0.02875805 Eh      18.05 kcal/mol
Thermal vibrational correction   ...      0.00002108 Eh       0.01 kcal/mol
Thermal rotational correction    ...      0.00141627 Eh       0.89 kcal/mol
Thermal translational correction ...      0.00141627 Eh       0.89 kcal/mol
-----------------------------------------------------------------------
Total thermal energy                   -113.86754237 Eh


Summary of corrections to the electronic energy:
(perhaps to be used in another calculation)
Total thermal correction                  0.00285363 Eh       1.79 kcal/mol
Non-thermal (ZPE) correction              0.02875805 Eh      18.05 kcal/mol
-----------------------------------------------------------------------
Total correction                          0.03161167 Eh      19.84 kcal/mol


--------
ENTHALPY
--------

The enthalpy is H = U + kB*T
                kB is Boltzmann's constant
Total thermal energy              ...   -113.86754237 Eh 
Thermal Enthalpy correction       ...      0.00094421 Eh       0.59 kcal/mol
-----------------------------------------------------------------------
Total Enthalpy                    ...   -113.86659816 Eh


Note: Rotational entropy computed according to Herzberg 
Infrared and Raman Spectra, Chapter V,1, Van Nostrand Reinhold, 1945 
Point Group:  C2v, Symmetry Number:   2  
Rotational constants in cm-1:     9.719657     1.349419     1.184913 

Vibrational entropy computed according to the QRRHO of S. Grimme
Chem.Eur.J. 2012 18 9955 using a reference frequency of 100.0 cm-1


-------
ENTROPY
-------

The entropy contributions are T*S = T*(S(el)+S(vib)+S(rot)+S(trans))
     S(el)   - electronic entropy
     S(vib)  - vibrational entropy
     S(rot)  - rotational entropy
     S(trans)- translational entropy
The entropies will be listed as multiplied by the temperature to get
units of energy

Electronic entropy                ...      0.00000000 Eh      0.00 kcal/mol
Vibrational entropy               ...      0.00002422 Eh      0.02 kcal/mol
Rotational entropy                ...      0.00756118 Eh      4.74 kcal/mol
Translational entropy             ...      0.01716732 Eh     10.77 kcal/mol
-----------------------------------------------------------------------
Final entropy term                ...      0.02475271 Eh     15.53 kcal/mol

In case the symmetry of your molecule has not been determined correctly
or in case you have a reason to use a different symmetry number we print 
out the resulting rotational entropy values for sn=1,12:

 non-linear molecules -----------------------------------
|  sn= 1 | S(rot)=       0.00821563 Eh      5.16 kcal/mol|
|  sn= 2 | S(rot)=       0.00756118 Eh      4.74 kcal/mol|
|  sn= 3 | S(rot)=       0.00717834 Eh      4.50 kcal/mol|
|  sn= 4 | S(rot)=       0.00690672 Eh      4.33 kcal/mol|
|  sn= 5 | S(rot)=       0.00669603 Eh      4.20 kcal/mol|
|  sn= 6 | S(rot)=       0.00652389 Eh      4.09 kcal/mol|
|  sn= 7 | S(rot)=       0.00637834 Eh      4.00 kcal/mol|
|  sn= 8 | S(rot)=       0.00625226 Eh      3.92 kcal/mol|
|  sn= 9 | S(rot)=       0.00614106 Eh      3.85 kcal/mol|
|  sn=10 | S(rot)=       0.00604158 Eh      3.79 kcal/mol|
|  sn=11 | S(rot)=       0.00595159 Eh      3.73 kcal/mol|
|  sn=12 | S(rot)=       0.00586943 Eh      3.68 kcal/mol|
 linear molecules ---------------------------------------
|  Dinfh | S(rot)=       0.00516561 Eh      3.24 kcal/mol|
|  Cinfv | S(rot)=       0.00582006 Eh      3.65 kcal/mol|
 --------------------------------------------------------


-------------------
GIBBS FREE ENERGY
-------------------

The Gibbs free energy is G = H - T*S

Total enthalpy                    ...   -113.86659816 Eh 
Total entropy correction          ...     -0.02475271 Eh    -15.53 kcal/mol
-----------------------------------------------------------------------
Final Gibbs free energy         ...   -113.89135087 Eh

For completeness - the Gibbs free energy minus the electronic energy
G-E(el)                           ...      0.00780317 Eh      4.90 kcal/mol


Maximum memory used throughout the entire PROP-calculation: 24.2 MB

--------------------------------
SUGGESTED CITATIONS FOR THIS RUN
--------------------------------

Below you find a list of papers that are relevant to this ORCA run
We neither can nor want to force you to cite these papers, but we appreciate if you do
You receive ORCA, which is the product of decades of hard work by many enthusiastic individuals, for free
The only thing we kindly ask in return is that you cite our papers,
We deeply appreciate it, if you show your appreciation for ORCA by not just citing the generic ORCA reference.

Please note that relegating all ORCA citations to the supporting information does *not* help us.
SI sections are not indexed - citations you put there will not count into any citation statistics
But we need these citations in order to attract the funding resources that allow us to do what we are doing

Therefore, if you are a happy ORCA user, please consider citing a few of the papers listed below in the main body of your paper

In addition to the list printed below, the program has created the file h2o.bibtex that contains the list in bibtex format
You can import this file easily into all common literature databanks and citation aid programs


List of essential papers. We consider these as the minimum necessary citations

  1. Neese,F.
     Software update: the ORCA program system, version 5.0
     WIRES Comput. Molec. Sci., 2022 12(1)e1606
     doi.org/10.1002/wcms.1606

List of papers to cite with high priority. The work reported in these papers was absolutely
necessary for this run to complete.
Our perspective: the developers of density functionals and basis sets usually get cited in chemistry papers
Good! But without the algorithms to do something with them, the functionals or basis sets would not do anything.
Hence, in our opinion, the algorithm design and method developments papers are equally worthy of getting cited

  1. Bykov,D.; Petrenko,T.; Izsak,R.; Kossmann,S.; Becker,U.; Valeev,E.; Neese,F.
     Efficient implementation of the analytic second derivatives of Hartree-Fock and hybrid DFT energies: a detailed analysis of different approximations
     Molec. Phys., 2015 113 1961-1977
     doi.org/10.1080/00268976.2015.1025114
  2. Neese,F.
     The SHARK Integral Generation and Digestion System
     J. Comp. Chem., 2022  1-16
     doi.org/10.1002/jcc.26942

List of suggested additional citations. These are papers that are important in the 'surrounding' of 
of this run, or papers that preceded the highly important papers. If you like your results we are grateful for a citation.

  1. Neese,F.
     The ORCA program system
     WIRES Comput. Molec. Sci., 2012 2(1)73-78
     doi.org/10.1002/wcms.81
  2. Neese,F.
     Software update: the ORCA program system, version 4.0
     WIRES Comput. Molec. Sci., 2018 8(1)1-6
     doi.org/10.1002/wcms.1327
  3. Neese,F.; Wennmohs,F.; Becker,U.; Riplinger,C.
     The ORCA quantum chemistry program package
     J. Chem. Phys., 2020 152 Art. No. L224108
     doi.org/10.1063/5.0004608

List of optional additional citations

  1. Neese,F.
     Approximate second-order SCF convergence for spin unrestricted wavefunctions
     Chem. Phys. Lett., 2000 325(1-3)93-98
     doi.org/10.1016/s0009-2614(00)00662-x

Timings for individual modules:

Sum of individual times          ...        7.160 sec (=   0.119 min)
Startup calculation              ...        0.739 sec (=   0.012 min)  10.3 %
SCF iterations                   ...        2.053 sec (=   0.034 min)  28.7 %
Property integrals               ...        0.567 sec (=   0.009 min)   7.9 %
SCF Response                     ...        1.070 sec (=   0.018 min)  15.0 %
Property calculations            ...        1.577 sec (=   0.026 min)  22.0 %
SCF Gradient evaluation          ...        1.132 sec (=   0.019 min)  15.8 %
Geometry relaxation              ...        0.022 sec (=   0.000 min)   0.3 %
                             ****ORCA TERMINATED NORMALLY****
TOTAL RUN TIME: 0 days 0 hours 0 minutes 7 seconds 373 msec
