
 Working directory              : /tmp/lme/molpro.GThonFetUE/
 Global scratch directory       : /tmp/lme/molpro.GThonFetUE/
 Wavefunction directory         : /home/lme/wfu/
 Main file repository           : /tmp/lme/molpro.GThonFetUE/

 id        : liedlgroup

 Nodes     nprocs
 sv1-c724     1
 GA implementation: MPI file
 GA implementation (serial work in mppx): MPI file

 Using customized tuning parameters: mindgm=1; mindgv=20; mindgc=4; mindgr=1; noblas=0; minvec=7
 default implementation of scratch files=df  


 Variables initialized (1042), CPU time= 0.01 sec
 
            orient,mass
            geometry=initial.xyz
 Including file /home/lme/Theoretische_Chemie/Nomodeco/metric_comparison/CH3OH/CH3OH.molpro/run/CH3OH_1.molpro/initial.xyz
            mass, iso
            basis=6-311g(d,p)
            {hf
            start, atden}
            optg;
            {frequencies, symm=auto, print=0, analytical}
            put, molden, CH3OH.molden
 Commands initialized (847), CPU time= 0.00 sec, 718 directives.
 Default parameters read. Elapsed time= 0.06 sec

 Checking input...
 Passed
1


                                         ***  PROGRAM SYSTEM MOLPRO  ***
                                       Copyright, TTI GmbH Stuttgart, 2015
                                    Version 2024.1 linked Wed Jan 31 11:42:09 2024


 **********************************************************************************************************************************
 LABEL *                                                                                                                                                                 
  (6 PROC) 64 bit serial version                                                         DATE: 25-Sep-24          TIME: 11:53:12  
 **********************************************************************************************************************************

 SHA1:             675817fde4514a4a933b69e420913a90cee4ef91
 **********************************************************************************************************************************

 Memory per process:        32 MW
 Total memory per node:     32 MW

 GA preallocation disabled
 GA check disabled

 Variable memory set to 32.0 MW

 ZCENTRE=MASS


 Geometry recognized as XYZ



 Using masses of most abundant isotopes

 **********************************************************************************************************************************
 SETTING BASIS          =    6-311G(D,P)


 Recomputing integrals since basis changed


 Using spherical harmonics

 Library entry C      S 6-311G               selected for orbital group  1
 Library entry C      P 6-311G               selected for orbital group  1
 Library entry C      D 6-311G*              selected for orbital group  1
 Library entry O      S 6-311G               selected for orbital group  2
 Library entry O      P 6-311G               selected for orbital group  2
 Library entry O      D 6-311G*              selected for orbital group  2
 Library entry H      S 6-311G               selected for orbital group  3
 Library entry H      P 6-311G**             selected for orbital group  3


 PROGRAM * SEWARD (Integral evaluation for generally contracted gaussian basis sets)     Author: Roland Lindh, 1990

 Geometry written to block  1 of record 700

 Orientation using atomic masses  
 Molecule type: Asymmetric top
 Symmetry elements: X
 Rotational constants:      23.8477325     24.7402811    127.2848845 GHz

 Point group  Cs  



 ATOMIC COORDINATES

 NR  ATOM    CHARGE       X              Y              Z

   1  C       6.00    0.000000000    0.024270140    1.377887847
   2  O       8.00    0.000000000   -0.121476218   -1.307126296
   3  H       1.00    0.000000000   -1.917940548    2.061278185
   4  H       1.00    0.000000000    1.595511656   -1.948978164
   5  H       1.00    1.685204846    0.980681864    2.113231230
   6  H       1.00   -1.685204846    0.980681864    2.113231230

 Bond lengths in Bohr (Angstrom)

 1-2  2.688966892  1-3  2.058932906  1-5  2.072527117  1-6  2.072527117  2-4  1.833036056
     ( 1.422940000)     ( 1.089540373)     ( 1.096734119)     ( 1.096734119)     ( 0.970000908)

 Bond angles

  1-2-4  107.38992044   2-1-3  106.27799177   2-1-5  112.29008975   2-1-6  112.29008975

  3-1-5  108.51452596   3-1-6  108.51452596   5-1-6  108.80298907

 NUCLEAR CHARGE:                   18
 NUMBER OF PRIMITIVE AOS:          96
 NUMBER OF SYMMETRY AOS:           94
 NUMBER OF CONTRACTIONS:           60   (   42A'  +   18A"  )
 NUMBER OF INNER CORE ORBITALS:     0   (    0A'  +    0A"  )
 NUMBER OF OUTER CORE ORBITALS:     2   (    2A'  +    0A"  )
 NUMBER OF VALENCE ORBITALS:       12   (    9A'  +    3A"  )


 NUCLEAR REPULSION ENERGY   40.20784357

 Eigenvalues of metric

         1 0.901E-02 0.211E-01 0.232E-01 0.401E-01 0.460E-01 0.582E-01 0.868E-01 0.952E-01
         2 0.237E-01 0.446E-01 0.111E+00 0.200E+00 0.338E+00 0.388E+00 0.439E+00 0.581E+00


 Contracted 2-electron integrals neglected if value below      1.0D-11
 AO integral compression algorithm  1   Integral accuracy      1.0D-11

     4.981 MB (compressed) written to integral file ( 58.8%)


 NUMBER OF SORTED TWO-ELECTRON INTEGRALS:     886101.     BUFFER LENGTH:  32768
 NUMBER OF SEGMENTS:   1  SEGMENT LENGTH:     886101      RECORD LENGTH: 524288

 Memory used in sort:       1.44 MW

 SORT1 READ     1099078. AND WROTE      871536. INTEGRALS IN      3 RECORDS. CPU TIME:     0.00 SEC, REAL TIME:     0.02 SEC
 SORT2 READ      871536. AND WROTE      886101. INTEGRALS IN     19 RECORDS. CPU TIME:     0.04 SEC, REAL TIME:     0.04 SEC

 FILE SIZES:   FILE 1:    35.2 MBYTE,  FILE 4:    12.6 MBYTE,   TOTAL:     47.8 MBYTE

 OPERATOR DM      FOR CENTER  0  COORDINATES:    0.000000    0.000000    0.000000


 **********************************************************************************************************************************
 DATASETS  * FILE   NREC   LENGTH (MB)   RECORD NAMES
              1      19       32.55       500      610      700      900      950      970     1000      129      960     1100   
                                          VAR    BASINP    GEOM    SYMINP    ZMAT    AOBASIS   BASIS     P2S    ABASIS      S 
                                         1400     1410     1200     1210     1080     1600     1650     1300     1700   
                                           T        V       H0       H01     AOSYM     SMH    MOLCAS    ERIS     OPER   

 PROGRAMS   *        TOTAL       INT
 CPU TIMES  *         0.36      0.27
 REAL TIME  *         0.45 SEC
 DISK USED  *        46.00 MB
 **********************************************************************************************************************************


 Program * Restricted Hartree-Fock

 Orbital guess generated from atomic densities.

 Initial occupancy:   7   2

 NELEC=   18   SYM=1   MS2= 0   THRE=1.0D-08   THRD=1.0D-06   THRG=1.0D-06  HFMA2=F  DIIS_START=2   DIIS_MAX=10   DIIS_INCORE=F

 Level shifts:    0.00 (CLOSED)    0.00 (OPEN)    0.30 (GAP_MIN)

 ITER           ETOT              DE          GRAD        DDIFF     DIIS  NEXP   TIME(IT)  TIME(TOT)  DIAG
   1     -115.03768880    -115.03768880     0.00D+00     0.72D-01     0     0       0.00      0.02    start
   2     -115.06682583      -0.02913703     0.12D-01     0.88D-02     1     0       0.01      0.03    diag
   3     -115.07369581      -0.00686998     0.61D-02     0.29D-02     2     0       0.00      0.03    diag
   4     -115.07419450      -0.00049869     0.12D-02     0.96D-03     3     0       0.01      0.04    diag
   5     -115.07422470      -0.00003019     0.24D-03     0.30D-03     4     0       0.00      0.04    diag
   6     -115.07422578      -0.00000108     0.42D-04     0.60D-04     5     0       0.00      0.04    diag
   7     -115.07422583      -0.00000005     0.94D-05     0.93D-05     6     0       0.01      0.05    diag
   8     -115.07422583      -0.00000001     0.32D-05     0.32D-05     7     0       0.00      0.05    fixocc
   9     -115.07422583      -0.00000000     0.66D-06     0.90D-06     8     0       0.00      0.05    diag
  10     -115.07422583      -0.00000000     0.12D-06     0.13D-06     0     0       0.01      0.06    diag/orth

 Final occupancy:   7   2

 !RHF STATE 1.1 Energy               -115.074225832542
  RHF One-electron energy            -236.727415248271
  RHF Two-electron energy              81.445345848674
  RHF Kinetic energy                  114.976245010606
  RHF Nuclear energy                   40.207843567055
  RHF Virial quotient                  -1.000852183179

 !RHF STATE 1.1 Dipole moment           0.00000000     0.62487242     0.41980504
 Dipole moment /Debye                   0.00000000     1.58826728     1.06703797

 Orbital energies:

           1.1          2.1          3.1          4.1          5.1          6.1          7.1          8.1          9.1
    -20.545881   -11.270593    -1.348340    -0.921337    -0.683635    -0.586572    -0.499795     0.153263     0.187477

           1.2          2.2          3.2          4.2
     -0.615594    -0.446618     0.225300     0.478831


 HOMO      2.2    -0.446618 =     -12.1531eV
 LUMO      8.1     0.153263 =       4.1705eV
 LUMO-HOMO         0.599881 =      16.3236eV

 Orbitals saved in record  2100.2


 **********************************************************************************************************************************
 DATASETS  * FILE   NREC   LENGTH (MB)   RECORD NAMES
              1      19       32.55       500      610      700      900      950      970     1000      129      960     1100   
                                          VAR    BASINP    GEOM    SYMINP    ZMAT    AOBASIS   BASIS     P2S    ABASIS      S 
                                         1400     1410     1200     1210     1080     1600     1650     1300     1700   
                                           T        V       H0       H01     AOSYM     SMH    MOLCAS    ERIS     OPER   

              2       4        0.50       700     1000      520     2100   
                                         GEOM     BASIS   MCVARS     RHF  

 PROGRAMS   *        TOTAL    HF-SCF       INT
 CPU TIMES  *         0.42      0.06      0.27
 REAL TIME  *         0.52 SEC
 DISK USED  *        46.00 MB
 **********************************************************************************************************************************


 PROGRAM * OPT (Geometry optimization)     Authors: F. Eckert and H.-J. Werner


 BFGS update of hessian

 *** Long output written to logfile /home/lme/Theoretische_Chemie/Nomodeco/metric_comparison/CH3OH/CH3OH.molpro/run/CH3OH_1.molpro/CH3OH_1.log ***


 Geometry optimization using default procedure for command HF-SCF

 Geometry written to block  1 of record 700

 PQS Optimization using delocalized internal coordinates

 Point group cs. Number of degrees of freedom:    8

 ITER.   ENERGY(OLD)    ENERGY(NEW)      DE          GRADMAX     GRADNORM    GRADRMS     STEPMAX     STEPLEN     STEPRMS   CPU-time
   1  -115.07422583  -115.07577255    -0.00154672  0.02966170  0.03794553  0.01341577  0.06078192  0.08845352  0.03127304      0.53
   2  -115.07577255  -115.07580847    -0.00003592  0.00302555  0.00387126  0.00136870  0.01348802  0.02142302  0.00757418      1.08
   3  -115.07580847  -115.07581192    -0.00000345  0.00097041  0.00151028  0.00053396  0.00329857  0.00550605  0.00194668      1.61
   4  -115.07581192  -115.07581201    -0.00000009  0.00020116  0.00030558  0.00010804  0.00060869  0.00091502  0.00032351      2.13

 END OF GEOMETRY OPTIMIZATION.

 Geometry written to block  1 of record 700

 Recomputing wavefunction for reoriented structure

 Current geometry (xyz format, in Angstrom)

    6
 HF-SCF000/6-311G(D,P)  ENERGY=-115.07581201
 C          0.0000000000        0.0130158700        0.7171283826
 O          0.0000000000       -0.0629908932       -0.6799899526
 H          0.0000000000       -1.0005150325        1.0957706642
 H          0.0000000000        0.8053034530       -1.0389047331
 H          0.8845932964        0.5199723847        1.0981701159
 H         -0.8845932964        0.5199723847        1.0981701159

 **********************************************************************************************************************************


 **********************************************************************************************************************************
 DATASETS  * FILE   NREC   LENGTH (MB)   RECORD NAMES
              1      19       32.56       500      610      700      900      950      970     1000      129      960     1100   
                                          VAR    BASINP    GEOM    SYMINP    ZMAT    AOBASIS   BASIS     P2S    ABASIS      S 
                                         1400     1410     1200     1210     1080     1600     1650     1300     1700   
                                           T        V       H0       H01     AOSYM     SMH    MOLCAS    ERIS     OPER   

              2       4        0.50       700     1000      520     2100   
                                         GEOM     BASIS   MCVARS     RHF  

 PROGRAMS   *        TOTAL      OPTG    HF-SCF       INT
 CPU TIMES  *         2.77      2.35      0.06      0.27
 REAL TIME  *         3.11 SEC
 DISK USED  *        46.42 MB
 **********************************************************************************************************************************


 PROGRAM * HESSIAN

 PROGRAM * MCKINLEY (Hessian of the energy)     Author: A. Bernhardsson, R. Lindh

 Orbitals from record         2100.2

 Number of closed-shell orbitals:  9 (  7  2 )
 Number of occupied orbitals:      9 (  7  2 )

 Number of electrons= 18     Singlet     Space symmetry=1      Wavefunction type: CLOSED          


 McKinley needed      2.34 seconds of CPU time

 Entering CPHF calculation

 CPHF needed 139 iterations for 18 perturbations.  Total CPU time:    0.60 sec


 HF-SCF hessian saved to record  5300.2

 PROGRAM * FREQUENCIES (Calculation of harmonic vibrational spectra for HF-SCF)


 Permanent Dipole Moment [debye]
     1-   3    0.000000    0.000000    0.000000

 Dipole Moment Norm    0.0000000 [debye]

 Dipole Moment Derivatives [debye/ang]
              1             2             3             4             5             6             7             8
    1    0.00000000    0.00000000    0.00000000    0.00000000    0.00000000    0.00000000    0.00000000    0.00000000
    2    0.00000000    0.00000000    0.00000000    0.00000000    0.00000000    0.00000000    0.00000000    0.00000000
    3    0.00000000    0.00000000    0.00000000    0.00000000    0.00000000    0.00000000    0.00000000    0.00000000
              9            10            11            12            13            14            15            16
    1    0.00000000    0.00000000    0.00000000    0.00000000    0.00000000    0.00000000    0.00000000    0.00000000
    2    0.00000000    0.00000000    0.00000000    0.00000000    0.00000000    0.00000000    0.00000000    0.00000000
    3    0.00000000    0.00000000    0.00000000    0.00000000    0.00000000    0.00000000    0.00000000    0.00000000
             17            18
    1    0.00000000    0.00000000
    2    0.00000000    0.00000000
    3    0.00000000    0.00000000

 Projecting out rotations and translations

 Force Constants (Second Derivatives of the Energy) in [a.u.]
                             CX1         CY1         CZ1         OX2         OY2     
           CX1           0.6245983
           CY1           0.0000000   0.6768764
           CZ1          -0.0000000  -0.0170542   0.5693810
           OX2          -0.0729863   0.0000000   0.0000000   0.0533383
           OY2           0.0000000  -0.1146419   0.0091249  -0.0000000   0.6472655
           OZ2          -0.0000000  -0.0414162  -0.3007248  -0.0000000  -0.1695302
           HX3          -0.0613254  -0.0000000  -0.0000000   0.0025316   0.0000000
           HY3          -0.0000000  -0.3205166   0.0899097   0.0000000   0.0080066
           HZ3          -0.0000000   0.0735808  -0.0828023  -0.0000000   0.0458545
           HX4           0.0000858  -0.0000000   0.0000000  -0.0034066  -0.0000000
           HY4           0.0000000   0.0054501  -0.0077638  -0.0000000  -0.5506292
           HZ4           0.0000000   0.0495707  -0.0207164  -0.0000000   0.1576257
           HX5          -0.2451862  -0.1033918  -0.0657882   0.0102615   0.0032127
           HY5          -0.1022091  -0.1235840  -0.0371083   0.0006135   0.0049995
           HZ5          -0.0611879  -0.0323405  -0.0825688  -0.0337778  -0.0215375
           HX6          -0.2451862   0.1033918   0.0657882   0.0102615  -0.0032127
           HY6           0.1022091  -0.1235840  -0.0371083  -0.0006135   0.0049995
           HZ6           0.0611879  -0.0323405  -0.0825688   0.0337778  -0.0215375
                             OZ2         HX3         HY3         HZ3         HX4     
           OZ2           0.5230666
           HX3           0.0000000   0.0547310
           HY3           0.0017611  -0.0000000   0.3381491
           HZ3          -0.0273626  -0.0000000  -0.0976432   0.1065725
           HX4          -0.0000000   0.0004341   0.0000000  -0.0000000   0.0033364
           HY4           0.2171057   0.0000000   0.0026855  -0.0013005   0.0000000
           HZ4          -0.1257227   0.0000000  -0.0018072  -0.0085758   0.0000000
           HX5          -0.0046650   0.0018143  -0.0000296   0.0013821  -0.0002249
           HY5          -0.0039602  -0.0302289  -0.0141623  -0.0102458   0.0012629
           HZ5          -0.0346283   0.0100650   0.0038898   0.0060841  -0.0006254
           HX6           0.0046650   0.0018143   0.0000296  -0.0013821  -0.0002249
           HY6          -0.0039602   0.0302289  -0.0141623  -0.0102458  -0.0012629
           HZ6          -0.0346283  -0.0100650   0.0038898   0.0060841   0.0006254
                             HY4         HZ4         HX5         HY5         HZ5     
           HY4           0.5410719
           HZ4          -0.2055019   0.1513033
           HX5          -0.0000058  -0.0009586   0.2577975
           HY5           0.0007109   0.0000563   0.1153880   0.1212868
           HZ5          -0.0012698   0.0018558   0.0777779   0.0455413   0.1024979
           HX6           0.0000058   0.0009586  -0.0244622   0.0151735   0.0077482
           HY6           0.0007109   0.0000563  -0.0151735   0.0107492   0.0057167
           HZ6          -0.0012698   0.0018558  -0.0077482   0.0057167   0.0067592
                             HX6         HY6         HZ6     
           HX6           0.2577975
           HY6          -0.1153880   0.1212868
           HZ6          -0.0777779   0.0455413   0.1024979


 Atomic Masses
     1-   6   12.000000   15.994910    1.007825    1.007825    1.007825    1.007825

 Mass weighted Second Derivative Matrix
                             CX1         CY1         CZ1         OX2         OY2     
           CX1           0.0520499
           CY1           0.0000000   0.0564064
           CZ1          -0.0000000  -0.0014212   0.0474484
           OX2          -0.0052682   0.0000000   0.0000000   0.0033347
           OY2           0.0000000  -0.0082749   0.0006586  -0.0000000   0.0404670
           OZ2          -0.0000000  -0.0029894  -0.0217064  -0.0000000  -0.0105990
           HX3          -0.0176342  -0.0000000  -0.0000000   0.0006305   0.0000000
           HY3          -0.0000000  -0.0921653   0.0258537   0.0000000   0.0019942
           HZ3          -0.0000000   0.0211583  -0.0238100  -0.0000000   0.0114209
           HX4           0.0000247  -0.0000000   0.0000000  -0.0008485  -0.0000000
           HY4           0.0000000   0.0015672  -0.0022325  -0.0000000  -0.1371437
           HZ4           0.0000000   0.0142542  -0.0059571  -0.0000000   0.0392594
           HX5          -0.0705039  -0.0297306  -0.0189175   0.0025558   0.0008002
           HY5          -0.0293904  -0.0355369  -0.0106706   0.0001528   0.0012452
           HZ5          -0.0175947  -0.0092996  -0.0237428  -0.0084129  -0.0053643
           HX6          -0.0705039   0.0297306   0.0189175   0.0025558  -0.0008002
           HY6           0.0293904  -0.0355369  -0.0106706  -0.0001528   0.0012452
           HZ6           0.0175947  -0.0092996  -0.0237428   0.0084129  -0.0053643
                             OZ2         HX3         HY3         HZ3         HX4     
           OZ2           0.0327021
           HX3           0.0000000   0.0543061
           HY3           0.0004386  -0.0000000   0.3355236
           HZ3          -0.0068151  -0.0000000  -0.0968851   0.1057451
           HX4          -0.0000000   0.0004308   0.0000000  -0.0000000   0.0033105
           HY4           0.0540739   0.0000000   0.0026647  -0.0012904   0.0000000
           HZ4          -0.0313134   0.0000000  -0.0017932  -0.0085092   0.0000000
           HX5          -0.0011619   0.0018002  -0.0000294   0.0013713  -0.0002232
           HY5          -0.0009864  -0.0299942  -0.0140524  -0.0101663   0.0012531
           HZ5          -0.0086248   0.0099869   0.0038596   0.0060369  -0.0006205
           HX6           0.0011619   0.0018002   0.0000294  -0.0013713  -0.0002232
           HY6          -0.0009864   0.0299942  -0.0140524  -0.0101663  -0.0012531
           HZ6          -0.0086248  -0.0099869   0.0038596   0.0060369   0.0006205
                             HY4         HZ4         HX5         HY5         HZ5     
           HY4           0.5368709
           HZ4          -0.2039063   0.1501285
           HX5          -0.0000057  -0.0009512   0.2557959
           HY5           0.0007053   0.0000559   0.1144921   0.1203451
           HZ5          -0.0012599   0.0018414   0.0771740   0.0451878   0.1017021
           HX6           0.0000057   0.0009512  -0.0242723   0.0150557   0.0076881
           HY6           0.0007053   0.0000559  -0.0150557   0.0106658   0.0056723
           HZ6          -0.0012599   0.0018414  -0.0076881   0.0056723   0.0067067
                             HX6         HY6         HZ6     
           HX6           0.2557959
           HY6          -0.1144921   0.1203451
           HZ6          -0.0771740   0.0451878   0.1017021


 Mass Weighted 2nd Derivative Matrix Eigenvalues
     1-  10    0.000000    0.000000    0.000000    0.000000    0.000000    0.000000    0.004433    0.050913    0.052656    0.061727
    11-  18    0.083900    0.098744    0.099183    0.100591    0.373235    0.383857    0.401407    0.663333

 Mass Weighted 2nd Derivative Matrix Eigenvectors
              1             2             3             4             5             6             7             8
    1   -0.04103254    0.19827279    0.39032429    0.60820608   -0.32916557    0.11892180    0.01496548    0.00000000
    2   -0.09633295    0.50408463    0.43567586   -0.20751404    0.39143305   -0.15889720    0.00000000   -0.23815690
    3   -0.10562123    0.02627889    0.06688721   -0.17527835   -0.00874732    0.57242694    0.00000000   -0.01223918
    4    0.48081773    0.65893503   -0.40592418    0.10968956   -0.16468411    0.13696992   -0.25135368    0.00000000
    5    0.10750438   -0.05212122   -0.08139560    0.45550450    0.77020213    0.19340016    0.00000000    0.00991033
    6   -0.13384054    0.06483581    0.10901475   -0.24017607   -0.02741450    0.64037498    0.00000000   -0.13331735
    7    0.41865703   -0.07881939    0.37289168    0.12307547   -0.11553487    0.07321548    0.28185931    0.00000000
    8   -0.04279710    0.18922215    0.16601573   -0.10742424    0.09178537   -0.07168570    0.00000000    0.13288616
    9   -0.07043822    0.12308327    0.12580053   -0.17736938   -0.06049429    0.09726707    0.00000000    0.53181443
   10   -0.24572925    0.28501649   -0.33012342    0.06959074   -0.02273677    0.00111063    0.86249628    0.00000000
   11    0.04108969   -0.05397302   -0.05811614    0.15916152    0.21385790    0.07284777    0.00000000    0.25977543
   12    0.00052541   -0.08264652   -0.06380277    0.04814758    0.04277239    0.21953447    0.00000000    0.57842936
   13   -0.26738143    0.07834100    0.07701478    0.26077981   -0.10755316    0.01627645   -0.09732561   -0.03651558
   14    0.35613570    0.09794660    0.33863336   -0.18769616    0.08695012   -0.03871909    0.21201904    0.19482415
   15    0.05155113    0.02318559   -0.17935640   -0.07730140    0.06093613    0.19836111   -0.04692633   -0.26845015
   16   -0.26738143    0.07834100    0.07701478    0.26077981   -0.10755316    0.01627645   -0.09732561    0.03651558
   17   -0.44191849    0.28104442   -0.00609803   -0.02775163    0.09634619   -0.10497723   -0.21201904    0.19482415
   18   -0.07292574   -0.12346534    0.11166797    0.10233026   -0.00802497    0.20206975    0.04692633   -0.26845015
              9            10            11            12            13            14            15            16
    1    0.00000000    0.42212087    0.00000000    0.00000000   -0.19738248    0.00000000    0.00000000   -0.31124643
    2   -0.03109606    0.00000000    0.38017986    0.07097088    0.00000000    0.14389984   -0.10464224    0.00000000
    3   -0.67305390    0.00000000   -0.03970999   -0.34634934    0.00000000    0.16413241   -0.14193676    0.00000000
    4    0.00000000   -0.21811253    0.00000000    0.00000000   -0.03428284    0.00000000    0.00000000    0.00200455
    5    0.03216910    0.00000000   -0.29270439    0.02154647    0.00000000    0.06607756    0.00078934    0.00000000
    6    0.67443014    0.00000000   -0.11498874   -0.02868771    0.00000000    0.02963930   -0.00809799    0.00000000
    7    0.00000000   -0.25057192    0.00000000    0.00000000    0.70911580    0.00000000    0.00000000   -0.02308737
    8    0.00635659    0.00000000   -0.02153884    0.25919385    0.00000000    0.06172264   -0.25527087    0.00000000
    9   -0.14314469    0.00000000   -0.37833079    0.58926067    0.00000000    0.14478765    0.08952251    0.00000000
   10    0.00000000   -0.00570194    0.00000000    0.00000000   -0.01035983    0.00000000    0.00000000    0.00072638
   11   -0.02256080    0.00000000    0.22149608   -0.00582798    0.00000000   -0.02590528    0.00146537    0.00000000
   12    0.11381389    0.00000000    0.66075580   -0.03732623    0.00000000   -0.09102365   -0.00527514    0.00000000
   13   -0.00318392   -0.16569482    0.09240000   -0.01436817    0.05945683    0.40275128    0.55348370    0.54418536
   14   -0.00232518    0.08336505   -0.17286916   -0.29204847   -0.37093542   -0.39780117    0.30587114    0.32507873
   15   -0.16750541    0.56683908    0.15634618    0.37873719    0.29551302   -0.36910052    0.21889216    0.22244136
   16    0.00318392   -0.16569482   -0.09240000    0.01436817    0.05945683   -0.40275128   -0.55348370    0.54418536
   17   -0.00232518   -0.08336505   -0.17286916   -0.29204847    0.37093542   -0.39780117    0.30587114   -0.32507873
   18   -0.16750541   -0.56683908    0.15634618    0.37873719   -0.29551302   -0.36910052    0.21889216   -0.22244136
             17            18
    1    0.00000000    0.00000000
    2   -0.29381057   -0.00582152
    3    0.05856522   -0.00256530
    4    0.00000000    0.00000000
    5    0.00593452   -0.22209545
    6   -0.00004592    0.09931566
    7    0.00000000    0.00000000
    8    0.86906151    0.01065229
    9   -0.31114154   -0.00409104
   10    0.00000000    0.00000000
   11   -0.01303287    0.89314996
   12   -0.00246978   -0.37803518
   13    0.14614813    0.00043789
   14    0.06708008    0.00053558
   15    0.05585376   -0.00233816
   16   -0.14614813   -0.00043789
   17    0.06708008    0.00053558
   18    0.05585376   -0.00233816

   Low Vibration      Wavenumber
        Nr             [1/cm] 
        1                0.00
        2                0.00
        3                0.00
        4                0.00
        5                0.00
        6                0.00

     Vibration        Wavenumber
        Nr             [1/cm] 
        1              342.25
        2             1159.90
        3             1179.58
        4             1277.15
        5             1488.97
        6             1615.32
        7             1618.91
        8             1630.36
        9             3140.47
       10             3184.85
       11             3256.84
       12             4186.68

 FREQUENCIES * CALCULATION OF NORMAL MODES FOR HF-SCF


 Atomic Coordinates

  Nr  Atom  Charge       X              Y              Z

   1   C     6.00    0.000000000    0.024596430    1.355176239
   2   O     8.00    0.000000000   -0.119035536   -1.284994778
   3   H     1.00    0.000000000   -1.890699395    2.070706451
   4   H     1.00    0.000000000    1.521802973   -1.963245415
   5   H     1.00    1.671639062    0.982605399    2.075240757
   6   H     1.00   -1.671639062    0.982605399    2.075240757

 Gradient norm at reference geometry: 0.29646D-03

 Normal Modes

                              1 A``       2 A`        3 A`        4 A``       5 A` 
 Wavenumbers [cm-1]          342.25     1159.90     1179.58     1277.15     1488.97
 Intensities [km/mol]          0.00        0.00        0.00        0.00        0.00
 Intensities [relative]        0.00        0.00        0.00        0.00        0.00
           CX1              0.00432    -0.00000    -0.00000     0.12186    -0.00000
           CY1              0.00000    -0.06875    -0.00898    -0.00000     0.10975
           CZ1             -0.00000    -0.00353    -0.19429    -0.00000    -0.01146
           OX2             -0.06285    -0.00000    -0.00000    -0.05454    -0.00000
           OY2              0.00000     0.00248     0.00804    -0.00000    -0.07319
           OZ2             -0.00000    -0.03333     0.16863     0.00000    -0.02875
           HX3              0.28076     0.00000    -0.00000    -0.24960    -0.00000
           HY3              0.00000     0.13237     0.00633     0.00000    -0.02146
           HZ3             -0.00000     0.52975    -0.14259     0.00000    -0.37686
           HX4              0.85914    -0.00000     0.00000    -0.00568     0.00000
           HY4              0.00000     0.25876    -0.02247     0.00000     0.22063
           HZ4             -0.00000     0.57618     0.11337     0.00000     0.65819
           HX5             -0.09695    -0.03637    -0.00317    -0.16505     0.09204
           HY5              0.21119     0.19407    -0.00232     0.08304    -0.17220
           HZ5             -0.04674    -0.26741    -0.16685     0.56463     0.15574
           HX6             -0.09695     0.03637     0.00317    -0.16505    -0.09204
           HY6             -0.21119     0.19407    -0.00232    -0.08304    -0.17220
           HZ6              0.04674    -0.26741    -0.16685    -0.56463     0.15574

                              6 A`        7 A``       8 A`        9 A`       10 A``
 Wavenumbers [cm-1]         1615.32     1618.91     1630.36     3140.47     3184.85
 Intensities [km/mol]          0.00        0.00        0.00        0.00        0.00
 Intensities [relative]        0.00        0.00        0.00        0.00        0.00
           CX1             -0.00000    -0.05698    -0.00000     0.00000    -0.08985
           CY1              0.02049    -0.00000     0.04154    -0.03021     0.00000
           CZ1             -0.09998     0.00000     0.04738    -0.04097    -0.00000
           OX2             -0.00000    -0.00857    -0.00000     0.00000     0.00050
           OY2              0.00539    -0.00000     0.01652     0.00020     0.00000
           OZ2             -0.00717     0.00000     0.00741    -0.00202    -0.00000
           HX3              0.00000     0.70636     0.00000     0.00000    -0.02300
           HY3              0.25819    -0.00000     0.06148    -0.25428    -0.00000
           HZ3              0.58697    -0.00000     0.14422     0.08917     0.00000
           HX4             -0.00000    -0.01032    -0.00000    -0.00000     0.00072
           HY4             -0.00581     0.00000    -0.02580     0.00146     0.00000
           HZ4             -0.03718     0.00000    -0.09067    -0.00525    -0.00000
           HX5             -0.01431     0.05923     0.40118     0.55133     0.54207
           HY5             -0.29091    -0.36949    -0.39625     0.30468     0.32381
           HZ5              0.37726     0.29436    -0.36766     0.21804     0.22158
           HX6              0.01431     0.05923    -0.40118    -0.55133     0.54207
           HY6             -0.29091     0.36949    -0.39625     0.30468    -0.32381
           HZ6              0.37726    -0.29436    -0.36766     0.21804    -0.22158

                             11 A`       12 A` 
 Wavenumbers [cm-1]         3256.84     4186.68
 Intensities [km/mol]          0.00        0.00
 Intensities [relative]        0.00        0.00
           CX1             -0.00000     0.00000
           CY1             -0.08482    -0.00168
           CZ1              0.01691    -0.00074
           OX2              0.00000    -0.00000
           OY2              0.00148    -0.05553
           OZ2             -0.00001     0.02483
           HX3             -0.00000    -0.00000
           HY3              0.86568     0.01061
           HZ3             -0.30993    -0.00408
           HX4             -0.00000    -0.00000
           HY4             -0.01298     0.88968
           HZ4             -0.00246    -0.37656
           HX5              0.14558     0.00044
           HY5              0.06682     0.00053
           HZ5              0.05564    -0.00233
           HX6             -0.14558    -0.00044
           HY6              0.06682     0.00053
           HZ6              0.05564    -0.00233


 Normal Modes of low/zero frequencies

                                  1           2           3           4           5
 Wavenumbers [cm-1]            0.00        0.00        0.00        0.00        0.00
 Intensities [km/mol]          0.00        0.00        0.00        0.00        0.00
 Intensities [relative]        0.00        0.00        0.00        0.00        0.00
           CX1             -0.01185     0.05724     0.11268     0.17557    -0.09502
           CY1             -0.02781     0.14552     0.12577    -0.05990     0.11300
           CZ1             -0.03049     0.00759     0.01931    -0.05060    -0.00253
           OX2              0.12022     0.16476    -0.10150     0.02743    -0.04118
           OY2              0.02688    -0.01303    -0.02035     0.11389     0.19258
           OZ2             -0.03347     0.01621     0.02726    -0.06005    -0.00685
           HX3              0.41703    -0.07851     0.37144     0.12260    -0.11509
           HY3             -0.04263     0.18849     0.16537    -0.10701     0.09143
           HZ3             -0.07016     0.12260     0.12531    -0.17668    -0.06026
           HX4             -0.24477     0.28391    -0.32884     0.06932    -0.02265
           HY4              0.04093    -0.05376    -0.05789     0.15854     0.21303
           HZ4              0.00052    -0.08233    -0.06355     0.04796     0.04261
           HX5             -0.26634     0.07804     0.07672     0.25977    -0.10713
           HY5              0.35475     0.09757     0.33732    -0.18697     0.08661
           HZ5              0.05135     0.02310    -0.17866    -0.07700     0.06070
           HX6             -0.26634     0.07804     0.07672     0.25977    -0.10713
           HY6             -0.44020     0.27995    -0.00607    -0.02764     0.09597
           HZ6             -0.07264    -0.12299     0.11123     0.10193    -0.00799

                                  6
 Wavenumbers [cm-1]            0.00
 Intensities [km/mol]          0.00
 Intensities [relative]        0.00
           CX1              0.03433
           CY1             -0.04587
           CZ1              0.16525
           OX2              0.03425
           OY2              0.04836
           OZ2              0.16012
           HX3              0.07293
           HY3             -0.07141
           HZ3              0.09689
           HX4              0.00111
           HY4              0.07256
           HZ4              0.21868
           HX5              0.01621
           HY5             -0.03857
           HZ5              0.19759
           HX6              0.01621
           HY6             -0.10457
           HZ6              0.20128


 Frequencies dumped to record   5400.2
 Frequency information read from record  5400.2

 Zero point energy:  0.05486123 [H]    12040.65 [1/CM]      144.04 [KJ/MOL]


 **********************************************************************************************************************************
 DATASETS  * FILE   NREC   LENGTH (MB)   RECORD NAMES
              1      19       32.57       500      610      700      900      950      970     1000      129      960     1100   
                                          VAR    BASINP    GEOM    SYMINP    ZMAT    AOBASIS   BASIS     P2S    ABASIS      S 
                                         1400     1410     1200     1210     1080     1600     1650     1300     1700   
                                           T        V       H0       H01     AOSYM     SMH    MOLCAS    ERIS     OPER   

              2       7        0.53       700     1000      520     2100     5300     5450     5400   
                                         GEOM     BASIS   MCVARS     RHF     HESS     NMOD     FREQ   

              4       5        0.53      4100     4000     4200     4300     4400   

 PROGRAMS   *        TOTAL      FREQ      OPTG    HF-SCF       INT
 CPU TIMES  *         5.71      2.94      2.35      0.06      0.27
 REAL TIME  *         6.15 SEC
 DISK USED  *        46.42 MB
 **********************************************************************************************************************************

 Dump information in style MOLDEN to ch3oh.molden                                                                    

 Molecular orbitals read from record     2100.2  Type=RHF/CANONICAL  
 Occupation numbers read from record     2100.2  Type=RHF/RHF  
 Orbital energies read from record       2100.2  Type=RHF/CANONICAL  
 Redundancy group numbers read from rec  2100.2  Type=RHF/RHF  

 DUMP ORBITAL  1.1 AS ORBITAL    1  occ=    2.0000  eig=  -20.5412  GROUP=   2
 DUMP ORBITAL  2.1 AS ORBITAL    2  occ=    2.0000  eig=  -11.2656  GROUP=   2
 DUMP ORBITAL  3.1 AS ORBITAL    3  occ=    2.0000  eig=   -1.3621  GROUP=   2
 DUMP ORBITAL  4.1 AS ORBITAL    4  occ=    2.0000  eig=   -0.9267  GROUP=   2
 DUMP ORBITAL  5.1 AS ORBITAL    5  occ=    2.0000  eig=   -0.6945  GROUP=   2
 DUMP ORBITAL  1.2 AS ORBITAL    6  occ=    2.0000  eig=   -0.6209  GROUP=   2
 DUMP ORBITAL  6.1 AS ORBITAL    7  occ=    2.0000  eig=   -0.5957  GROUP=   2
 DUMP ORBITAL  7.1 AS ORBITAL    8  occ=    2.0000  eig=   -0.4979  GROUP=   2
 DUMP ORBITAL  2.2 AS ORBITAL    9  occ=    2.0000  eig=   -0.4449  GROUP=   2

 Total charge:      18.000000
 Frequency information read from record  5400.2

 **********************************************************************************************************************************

 HF/6-311G(D,P)//HF/6-311G(D,P) energy=   -115.075812006183

    OPTG(HF-SCF)          HF-SCF
   -115.07581201   -115.07422583
 **********************************************************************************************************************************
 Molpro calculation terminated
