[Molden Format]
[Molpro variables]
_NUMVAR=  1076.000000000000    
_AVOGAD= 0.6022140760000000E+24
_BOLTZ= 0.1380649000000000E-22
_CLIGHTSI=  299792458.0000000    
_JOULE= 0.4359744722207100E-17
_JPCAL=  4.184000000000000    
_PLANCK= 0.6626070150000000E-33
_BOHR= 0.5291772109030000E-10
_ECHARG= 0.1602176634000000E-18
_ENULL= 0.8854187812800001E-11
_MU= 0.1660539066600000E-26
_EMASS= 0.9109383701500001E-30
_AMU2AU=  1822.888486217313    
_CLIGHT=  29979245800.00000    
_EV= 0.3674932217565494E-01
_KJOULE= 0.3808798847133432E-03
_KJOULE/MOL= 0.3808798847133432E-03
_CM= 0.4556335252912009E-05
_CM-1= 0.4556335252912009E-05
_DEB2SI= 0.3335640951981520E-29
_KCAL= 0.1593601437640628E-02
_KCAL/MOL= 0.1593601437640628E-02
_KELVIN= 0.3166811563455608E-05
_HERTZ= 0.1519829846057038E-15
_HZ= 0.1519829846057038E-15
_TOA= 0.5291772109030000    
_TOANG= 0.5291772109030000    
_TORAD= 0.1745329251994330E-01
_TOCM=  219474.6313631965    
_TODEBYE=  2.541746473194078    
_TOE= 0.4803204712570263E-09
_TOEV=  27.21138624598803    
_TOHERTZ=  6579683920501656.    
_TOHZ=  6579683920501656.    
_TOK=  315775.0248040668    
_TOKCAL=  627.5094740630558    
_TOKELVIN=  315775.0248040668    
_TOKJ=  2625.499639479825    
_TOKJOULE=  2625.499639479825    
_TOKG= 0.1660539066600000E-26
_ANG=  1.889726124625770    
_ANGSTROM=  1.889726124625770    
_RPAREF=  0.000000000000000    
_RPADISS=  0.000000000000000    
_IGNORE_UNDEF=  2.000000000000000    
_STRICTCHECK=  0.000000000000000    
!SEWARD=  0.000000000000000    
!MULTI=  0.000000000000000    
!DFMULTI=  0.000000000000000    
!NUMHESS=  0.000000000000000    
_SEW_ONEEL=  0.000000000000000    
_CPPDONE=FALSE
_DKROLL_DONE=  0.000000000000000    
_FNUC_DONE=  0.000000000000000    
_FOCKDONE=TRUE
_GRADONE=FALSE
_HESSDONE=TRUE
_INTDONE=TRUE
_SCFDONE=TRUE
_MODUL_BLOCK=FALSE
_MODUL_SLATER=TRUE
_MODUL_MRCC=FALSE
_MODUL_NBO6=FALSE
_MODUL_NECI=FALSE
_MODUL_AIMS=TRUE
_MODUL_HDF5=FALSE
_MODUL_GECCO=FALSE
_ISWINDOWS=FALSE
_MRCC_EXEC=
_FITC_AO_SAVED=FALSE
_FITC_MO_SAVED=FALSE
_LSTYP=SEWARD
_INTYP=INTS
_GEOMTYP=XYZ
_GRADTYP=ALASKA
_DIRECT=FALSE
_DKHO= -1.000000000000000    
_FNUC=  0.000000000000000    
_SYNCM=  0.000000000000000    
_BASIS=6-311G(D,P)
_ZCENTRE=MASS
_ZORIENT=  1.000000000000000    
_NELEC=  20.00000000000000    
!SPIN=  0.000000000000000    
_OPTCONV= 0.4725173610534385E-02
_QSDSTEP=  0.000000000000000    
_QSDIRC=  0.000000000000000    
_PROGRAM=FREQ
_CPUSTEP=  2.980000000000000    
_SYSSTEP= 0.8000000000000002E-01
_WALLSTEP=  3.060000000000000    
!DFSCF=  0.000000000000000    
!SCSGRD=  0.000000000000000    
_NCEN=  6.000000000000000    
_CPUTOT=  6.220000000000001    
_DFTEXFAC=  1.000000000000000    
_DMX= 0.2844148077338556E-01
_DMY=  0.000000000000000    
_DMZ=  1.095875103805950    
_DMX_SCF= 0.2844148077338556E-01
_DMY_SCF=  0.000000000000000    
_DMZ_SCF=  1.095875103805950    
_FREQUENCIES= 0.3350986807139427E-04
_HOMO=  2.200000000000000    
_EHOMO=-0.4724992849243375    
_LUMO=  9.100000000000000    
_ELUMO= 0.1345779822276722    
_ENERGY= -152.1029014591034    
_ENERGY_METHOD=HF
_ENERGY_BASIS=6-311G(D,P)
_GEOMETRY_METHOD=HF
_GEOMETRY_BASIS=6-311G(D,P)
_ENUC=  36.52244365891856    
_GRADENERG= -152.1029006122887    
_GRADEXFAC=  9999.000000000000    
_GRADMETHOD=  1.000000000000000    
_NMRMETHOD=  0.000000000000000    
_NMRMAGNET=  0.000000000000000    
_VIRIAL= 0.2499647619665312E-03
!GRID_FREEZE= -1.000000000000000    
!NEESE_INDEX=  0.000000000000000    
_ITERATIONS=  10.00000000000000    
_LASTNELEC=  20.00000000000000    
_LASTSPIN=  0.000000000000000    
_LASTSYM=  1.000000000000000    
_MPP_PROG=  0.000000000000000    
_MSNSTATES=  0.000000000000000    
_RS2PHASE=  0.000000000000000    
_NPROC_MPP=  1.000000000000000    
_NPROC_SMP=  6.000000000000000    
_NUMSTEP=  0.000000000000000    
_OPTCONVMX= 0.4030939901719231E-02
_OPTCONVRMS= 0.1670601151146293E-02
_OPTGRAD= 0.2780184594174474E-03
_OPTGRADMX= 0.1906001012065914E-03
_OPTGRADRMS= 0.9829436897455701E-04
!GMAXLAST= 0.1906001012065914E-03
!DMAXLAST= 0.4030939901719231E-02
!DELAST= 0.1548177067434153E-05
_OPTSTEP=  6.000000000000000    
_ORBITAL=  2100.200000000000    
_PI=  3.141592653589793    
_SEIG_MIN= 0.1363070778695387E-01
_SEWPROP=TRUE
_STATUS=  1.000000000000000    
_SYSTOT= 0.4300000000000000    
_VERSION=  2024001.000000000    
_WALLTOT=  6.650000000000000    
_ZPE= 0.4951326635071323E-01
_DATE=18-Sep-24
_LASTORB=0
_OUTPUT=/home/lme/Theoretische_Chemie/Nomodeco/ase_integration/Water_dimer.molpro/run/Water_dimer_1.molpro/Water_dimer_1.out
_PGROUP=Cs
_TIME=10:45:49
_LIBMOL=/usr/local/molpro/molpro_2024.1.0_sockets/lib/
_VIGRDC=  0.000000000000000    
!VIBCNT=  0.000000000000000    
!SURFREC=  0.000000000000000    
!XSURFREC=  0.000000000000000    
!XPOLYREC=  0.000000000000000    
!ROTREC=  0.000000000000000    
!POLYREC=  0.000000000000000    
!DIPREC=  0.000000000000000    
!DIP4DREC=  0.000000000000000    
!DIPROT=  0.000000000000000    
!DIP4DROT=  0.000000000000000    
!PTREC=  0.000000000000000    
!PT4DREC=  0.000000000000000    
!VSCFREC=  0.000000000000000    
!VCIREC=  0.000000000000000    
!PVCIREC=  0.000000000000000    
!VMP2REC=  0.000000000000000    
!VMCSCFREC=  0.000000000000000    
!VMRCIREC=  0.000000000000000    
!VIBSTATEREC=  0.000000000000000    
!VIBSTATECNT=  0.000000000000000    
!VIBINFO=  0.000000000000000    
!GAREC=  0.000000000000000    
!SCFORB=  21002.00000000000    
!DEFCORE=  2.000000000000000    
!SCORE=  0.000000000000000    
!NEWMOL=  0.000000000000000    
!NEWSYM=  0.000000000000000    
_SLFILES=slscratch
_NGSSTO=  9.000000000000000    
_SIN=SIN
_COS=COS
_TAN=TAN
_ACOS=ACOS
_ASIN=ASIN
_ATAN=ATAN
_COSH=COSH
_SINH=SINH
_TANH=TANH
_ABS=ABS
_MOD=MOD
_ERF=ERF
_REFC=REFC
_ERFC=ERFC
_HYPOT=HYPOT
_J0=J0
_J1=J1
_JN=JN
_GAMMA=GAMMA
_LGAMMA=LGAMMA
_Y0=Y0
_Y1=Y1
_YN=YN
_EXP=EXP
_LOG=LOG
_LOG10=LOG10
_SQRT=SQRT
_INT=INT
_NINT=NINT
_MAX=MAX
_MIN=MIN
_COSMO=  0.000000000000000    
_COSMOIT=  0.000000000000000    
_COSMOES=  0.000000000000000    
_COSMOEDS=  0.000000000000000    
_COSMOEC=  0.000000000000000    
_COSMOEDCORR=  0.000000000000000    
_FEPSI=  1.000000000000000    
_SL_IsMM=  0.000000000000000    
_SL_NSYM=  2.000000000000000    
_SL_System_BitSw=  0.000000000000000    
_SL_Unique_atoms=  0.000000000000000    
_SL_GRAD=  0.000000000000000    
_SL_MAXUPD_Hess=  5.000000000000000    
_SL_N_PRINT_COD=  5.000000000000000    
_SL_PRINT_CODES=  0.000000000000000    
_SL_BasType=  0.000000000000000    
_SL_Energy_Pred=  0.000000000000000    
_SL_New_Coords=  0.000000000000000    
_SL_Total_Nuclea=  0.000000000000000    
_SL_Highest_Mltp=  0.000000000000000    
_SL_Ref_Geom=  0.000000000000000    
_SL_Symmetry_ope=  1.000000000000000    
_SL_agrad=  0.000000000000000    
_SL_GrdMax=  0.000000000000000    
_SL_GrdNorm=  0.000000000000000    
_SL_GrdRMS=  0.000000000000000    
_SL_Hss_Q=  0.000000000000000    
_SL_Hss_X=  0.000000000000000    
_SL_BMxOld=  0.000000000000000    
_SL_KtB=  0.000000000000000    
_SL_TROld=  0.000000000000000    
_SL_No_of_Intern=  0.000000000000000    
_SL_Hess=  0.000000000000000    
_SL_K=  0.000000000000000    
!LATTICE= -1.000000000000000    
!NEWLATTICE=  0.000000000000000    
!LATGRAD_VAR=FALSE
!SEW_LATTICE=  1.000000000000000    
!AIC_ONEEL=  0.000000000000000    
!LOCAL=  0.000000000000000    
!SAVEDOM= -1.000000000000000    
!RESTDOM= -1.000000000000000    
!SAVEDOM_HF= -1.000000000000000    
!RESTDOM_HF= -1.000000000000000    
!HESSREC=  5300.200000000000    
!FREQREC=  5400.200000000000    
!NMODREC=  5450.200000000000    
!GTASKS=  0.000000000000000    
!HTASKS=  0.000000000000000    
!SAVEDOM_EOM= -1.000000000000000    
!RESTDOM_EOM= -1.000000000000000    
!GRADSTATE= -1.000000000000000    
!DEBUG=  0.000000000000000    
!CFIT_CPHF=  0.000000000000000    
!RDOMAUX_CPHF=  0.000000000000000    
!THRAO_CPHF= 0.1000000000000000E-11
!THRMO_CPHF= 0.1000000000000000E-11
!THROV_CPHF= 0.1000000000000000E-13
!THRSW_CPHF= 0.1000000000000000E-11
!THRPROD_CPHF= 0.1000000000000000E-11
!THRAOPR_CPHF= 0.1000000000000000E-11
!CFIT_SCFGRD=  0.000000000000000    
!RDOMAUX_SCFGRD=  0.000000000000000    
!THRAO_SCFGRD= 0.1000000000000000E-11
!THRMO_SCFGRD= 0.1000000000000000E-11
!THROV_SCFGRD= 0.1000000000000000E-13
!THRSW_SCFGRD= 0.1000000000000000E-11
!THRPROD_SCFGRD= 0.1000000000000000E-11
!THRAOPR_SCFGRD= 0.1000000000000000E-11
!LOCFIT_SCF=  0.000000000000000    
!LOCFIT_MP2=  0.000000000000000    
_RIDOM=  0.000000000000000    
!CC2_METHOD=  0.000000000000000    
_BASIS2006=FALSE
_SVDDEL= -1.000000000000000    
_SVDDELA= -1.000000000000000    
_SVDDELP= -1.000000000000000    
_SVDDELF= -1.000000000000000    
_SVDDELS= -1.000000000000000    
_SVDDEL_ABS= -1.000000000000000    
_SVDDELA_ABS= -1.000000000000000    
_SVDDELP_ABS= -1.000000000000000    
_SVDDELF_ABS= -1.000000000000000    
_SVDDELS_ABS= -1.000000000000000    
_MAXBASIS=  0.000000000000000    
!OPT_CONICAL=  0.000000000000000    
!CLEARSP_JGRID=  0.000000000000000    
_GRDHYBR=  0.000000000000000    
_STATEGRAD=  1.000000000000000    
_4EXT_NDISKS=  1.000000000000000    
!EMBEDFLAG=  1.000000000000000    
!EMBED=FALSE
!EMBED_F12=FALSE
!EMBEDNUC=  0.000000000000000    
_EMBEDENERGY=  0.000000000000000    
!EMBED_DFC=FALSE
!NUM_VOIDS=  0.000000000000000    
_IBODY=  0.000000000000000    
_EMBE_CORR=  0.000000000000000    
!EMBED_PROJ=FALSE
!EMB_PROJ_ZMU=  1000000.000000000    
!CORRECTION_HF=  0.000000000000000    
!EMBED_AORB=  0.000000000000000    
!EMBED_NACORR=  0.000000000000000    
!EMBED_MP2=FALSE
!EMBED_TRUNC_PERTURBATION=FALSE
!EMBED_FROZEN=  0.000000000000000    
!EMBED_ACTIVE=  0.000000000000000    
_CHANGE_BASIS=FALSE
_RESTORE_BASIS=FALSE
_FIX_EMBED_GUESS=FALSE
_EMBED_SCF=FALSE
_NEOBAS=FALSE
_NEOOVE=FALSE
_PRINEO=FALSE
_HUZINAGA_T=FALSE
_HUZINAGA_F=FALSE
_HUZINAGA=FALSE
_HUZINAGA_CORRECT=FALSE
!FASTLATGRAD=  1.000000000000000    
!FASTVLAMBDA= -1.000000000000000    
!IFORCE= -1.000000000000000    
!USESYM= -1.000000000000000    
_SINDEX=  0.000000000000000    
_AVDOM_OSV=  0.000000000000000    
_AVDOM_PNO=  0.000000000000000    
_AVDOM_PNOCC=  0.000000000000000    
_AVDOM_TNO=  0.000000000000000    
_AVDOM_TNOIT=  0.000000000000000    
_AVDOM_PAO=  0.000000000000000    
_AVDOM_LMO=  0.000000000000000    
_CC2OSV_FLAG=  0.000000000000000    
_EOMCCSD_CONV=FALSE
_TMADC2_FLAG=FALSE
_PROPADC2_FLAG=FALSE
_LEN_VirQ=  0.000000000000000    
_GRDCC2LR_FLAG=FALSE
_GRDADC2_FLAG=FALSE
_RO_VGLOBAL=  0.000000000000000    
_OPT=FALSE
_FREQ=FALSE
_HESS=FALSE
_CMRCC_callName=EMPTY
_CMRCC_callCount=  0.000000000000000    
_GECCO_CIROOT=  1.000000000000000    
_SYM_CATION=  2.000000000000000    
_MON_A=FALSE
_MON_B=FALSE
_MAXGEOM=  100.0000000000000    
!MAXGEOM=  100.0000000000000    
_NCORE=  0.000000000000000    
_NLARGECORE=  0.000000000000000    
GX1=-0.6467865573284039E-01
GY1=  0.000000000000000    
GZ1= -1.523410070051263    
GX2= 0.8031920396597096    
GY2=  0.000000000000000    
GZ2= -1.885514991679552    
GX3= 0.5465518100172251E-01
GY3=  0.000000000000000    
GZ3=-0.5858454571380826    
GX4= 0.6122469346984409E-01
GY4=  0.000000000000000    
GZ4=  1.454605187819497    
GX5=-0.4015151735782928    
GY5=-0.7524093113597438    
GZ5=  1.781671789838175    
GX6=-0.4015151735782928    
GY6= 0.7524093113597438    
GZ6=  1.781671789838175    
OX1=-0.1222249454440248    
OY1=  0.000000000000000    
OZ1= -2.878827807893846    
HX2=  1.517812980436411    
HY2=  0.000000000000000    
HZ2= -3.563106938150391    
HX3= 0.1032833233851051    
HY3=  0.000000000000000    
HZ3= -1.107087465347162    
OX4= 0.1156979027221692    
OY4=  0.000000000000000    
OZ4=  2.748805424438680    
HX5=-0.7587537129445507    
HY5= -1.421847532088193    
HZ5=  3.366871726765954    
HX6=-0.7587537129445507    
HY6=  1.421847532088193    
HZ6=  3.366871726765954    
[Atoms] Angs
O     1    8        -0.0646786557        0.0000000000       -1.5234100701
H     2    1         0.8031920397        0.0000000000       -1.8855149917
H     3    1         0.0546551810        0.0000000000       -0.5858454571
O     4    8         0.0612246935        0.0000000000        1.4546051878
H     5    1        -0.4015151736       -0.7524093114        1.7816717898
H     6    1        -0.4015151736        0.7524093114        1.7816717898
[GTO]
   1 0
 s    6  1.00
  0.8588500000D+04  0.1895150083D-02
  0.1297230000D+04  0.1438590063D-01
  0.2992960000D+03  0.7073200310D-01
  0.8737710000D+02  0.2400010105D+00
  0.2567890000D+02  0.5947970261D+00
  0.3740040000D+01  0.2808020123D+00
 s    3  1.00
  0.4211750000D+02  0.1138890124D+00
  0.9628370000D+01  0.9208111006D+00
  0.2853320000D+01 -0.3274470358D-02
 s    1  1.00
  0.9056610000D+00  0.1000000000D+01
 s    1  1.00
  0.2556110000D+00  0.1000000000D+01
 p    3  1.00
  0.4211750000D+02  0.3651139738D-01
  0.9628370000D+01  0.2371529830D+00
  0.2853320000D+01  0.8197019412D+00
 p    1  1.00
  0.9056610000D+00  0.1000000000D+01
 p    1  1.00
  0.2556110000D+00  0.1000000000D+01
 d    1  1.00
  0.1292000000D+01  0.1000000000D+01
  
   2 0
 s    3  1.00
  0.3386500000D+02  0.2549381454D-01
  0.5094790000D+01  0.1903731086D+00
  0.1158790000D+01  0.8521614860D+00
 s    1  1.00
  0.3258400000D+00  0.1000000000D+01
 s    1  1.00
  0.1027410000D+00  0.1000000000D+01
 p    1  1.00
  0.7500000000D+00  0.1000000000D+01
  
   3 0
 s    3  1.00
  0.3386500000D+02  0.2549381454D-01
  0.5094790000D+01  0.1903731086D+00
  0.1158790000D+01  0.8521614860D+00
 s    1  1.00
  0.3258400000D+00  0.1000000000D+01
 s    1  1.00
  0.1027410000D+00  0.1000000000D+01
 p    1  1.00
  0.7500000000D+00  0.1000000000D+01
  
   4 0
 s    6  1.00
  0.8588500000D+04  0.1895150083D-02
  0.1297230000D+04  0.1438590063D-01
  0.2992960000D+03  0.7073200310D-01
  0.8737710000D+02  0.2400010105D+00
  0.2567890000D+02  0.5947970261D+00
  0.3740040000D+01  0.2808020123D+00
 s    3  1.00
  0.4211750000D+02  0.1138890124D+00
  0.9628370000D+01  0.9208111006D+00
  0.2853320000D+01 -0.3274470358D-02
 s    1  1.00
  0.9056610000D+00  0.1000000000D+01
 s    1  1.00
  0.2556110000D+00  0.1000000000D+01
 p    3  1.00
  0.4211750000D+02  0.3651139738D-01
  0.9628370000D+01  0.2371529830D+00
  0.2853320000D+01  0.8197019412D+00
 p    1  1.00
  0.9056610000D+00  0.1000000000D+01
 p    1  1.00
  0.2556110000D+00  0.1000000000D+01
 d    1  1.00
  0.1292000000D+01  0.1000000000D+01
  
   5 0
 s    3  1.00
  0.3386500000D+02  0.2549381454D-01
  0.5094790000D+01  0.1903731086D+00
  0.1158790000D+01  0.8521614860D+00
 s    1  1.00
  0.3258400000D+00  0.1000000000D+01
 s    1  1.00
  0.1027410000D+00  0.1000000000D+01
 p    1  1.00
  0.7500000000D+00  0.1000000000D+01
  
   6 0
 s    3  1.00
  0.3386500000D+02  0.2549381454D-01
  0.5094790000D+01  0.1903731086D+00
  0.1158790000D+01  0.8521614860D+00
 s    1  1.00
  0.3258400000D+00  0.1000000000D+01
 s    1  1.00
  0.1027410000D+00  0.1000000000D+01
 p    1  1.00
  0.7500000000D+00  0.1000000000D+01


[MO]
 Sym=      1.1
 Ene=     -20.5718
 Spin= Alpha
 Occup=    2.000000
1 -0.000021390312499
2 -0.000025340137679
3 0.000061981677518
4 -0.000243743289895
5 0.000004441028038
6 0.0
7 -0.000010361180005
8 -0.000019275563890
9 0.0
10 0.000037764172046
11 -0.000018668813696
12 0.0
13 -0.000137638424397
14 -0.000006189761088
15 0.000008395828081
16 -0.000002206066993
17 0.0
18 0.000004432676151
19 0.0
20 0.000000939735534
21 0.000066095348532
22 -0.000083403985682
23 -0.000017734793070
24 0.0
25 0.000017216125152
26 -0.000032057529228
27 0.000166807789348
28 0.000196014647182
29 -0.000001957933255
30 0.0
31 0.000027544181939
32 0.55142947920071
33 0.47167089505961
34 0.005607079344348
35 -0.000565142506409
36 -0.001428865184730
37 0.0
38 0.000931380604911
39 0.000501637307666
40 0.0
41 -0.000369662730854
42 -0.000055351434713
43 0.0
44 0.000143031098410
45 0.000031756678521
46 -0.000095731156365
47 0.000063974477845
48 0.0
49 0.000071476324168
50 0.0
51 0.000194889164797
52 0.000144709190840
53 0.000052267755898
54 0.000007825377399
55 0.000075701449815
56 -0.000027249016771
57 0.000194889164797
58 0.000144709190840
59 0.000052267755898
60 0.000007825377399
61 -0.000075701449815
62 -0.000027249016771
 Sym=      2.1
 Ene=     -20.5101
 Spin= Alpha
 Occup=    2.000000
1 0.55142510716326
2 0.47167143454290
3 0.005617688708607
4 -0.000567651488236
5 0.001514486408170
6 0.0
7 0.000800025985338
8 -0.000530066289075
9 0.0
10 -0.000247004326190
11 0.000074924760463
12 0.0
13 -0.000027745100111
14 -0.000047742344582
15 0.000109071277133
16 -0.000061328932551
17 0.0
18 0.000047695380821
19 0.0
20 0.000206611950998
21 0.000115324960070
22 0.000042052641283
23 -0.000051988604908
24 0.0
25 0.000060180110855
26 0.000197022130250
27 0.000111686474741
28 0.000231410821954
29 0.000022926802552
30 0.0
31 -0.000060798646960
32 0.000021969855928
33 0.000016951563119
34 0.000017530444568
35 -0.000060808117450
36 -0.000003294551945
37 0.0
38 0.000009546045660
39 0.000012355775602
40 0.0
41 -0.000027722134708
42 -0.000008794778639
43 0.0
44 0.000080714551472
45 0.000002677731048
46 -0.000001543517228
47 -0.000001134213820
48 0.0
49 -0.000000696747715
50 0.0
51 -0.000002825047930
52 0.000021783294865
53 -0.000033738681769
54 0.000001598763101
55 0.000001276949648
56 -0.000009871009859
57 -0.000002825047930
58 0.000021783294865
59 -0.000033738681769
60 0.000001598763101
61 -0.000001276949648
62 -0.000009871009859
 Sym=      3.1
 Ene=      -1.3777
 Spin= Alpha
 Occup=    2.000000
1 -0.006928663062682
2 -0.011520522483412
3 0.032003139700982
4 0.024075314351137
5 0.001825785099083
6 0.0
7 0.002415941138594
8 0.003316220887420
9 0.0
10 0.002984336716075
11 0.001077956017000
12 0.0
13 0.003350743021395
14 0.000144370814673
15 -0.000642356340570
16 0.000497985525897
17 0.0
18 -0.000038689855143
19 0.0
20 0.005544127906959
21 0.003233209614697
22 0.001641409663632
23 -0.001220098095100
24 0.0
25 0.000521630771002
26 0.008931811084031
27 0.006729521269035
28 -0.001429626365180
29 -0.000067626488583
30 0.0
31 -0.001747390178624
32 -0.11337781511353
33 -0.18940126780180
34 0.53780944912558
35 0.37669501225435
36 -0.030578883685592
37 0.0
38 0.020325543176127
39 -0.051162990736044
40 0.0
41 0.033998463236106
42 -0.017406788061236
43 0.0
44 0.007004616625195
45 -0.001268202135997
46 0.005656329749962
47 -0.004388127613965
48 0.0
49 -0.005878295143971
50 0.0
51 0.095518593138407
52 0.077958028383155
53 -0.002802600834201
54 0.011704236895115
55 0.023573280834938
56 -0.007807916957695
57 0.095518593138407
58 0.077958028383155
59 -0.002802600834201
60 0.011704236895115
61 -0.023573280834938
62 -0.007807916957695
 Sym=      4.1
 Ene=      -1.3193
 Spin= Alpha
 Occup=    2.000000
1 -0.11314740757857
2 -0.18894605262898
3 0.53517860818892
4 0.37940310976146
5 0.032688042470283
6 0.0
7 0.018479236442329
8 0.054684786607325
9 0.0
10 0.030328906488694
11 0.017309269073704
12 0.0
13 0.012603741312894
14 0.003556936405904
15 -0.008333275400134
16 0.004776338994230
17 0.0
18 -0.001557383042254
19 0.0
20 0.097044177461850
21 0.080940680856831
22 0.000567337126461
23 -0.024134128711222
24 0.0
25 0.012954786678476
26 0.093977335315247
27 0.075130321609066
28 -0.008458544442041
29 -0.000789923585115
30 0.0
31 -0.027903165027934
32 0.007786588367642
33 0.013044996301382
34 -0.037525716222518
35 -0.024130000351716
36 0.002433615209390
37 0.0
38 -0.003748509108706
39 0.003694470479248
40 0.0
41 -0.004449563513698
42 0.001403280653385
43 0.0
44 -0.005670019624338
45 0.000056240321037
46 -0.000385248558273
47 0.000329008237236
48 0.0
49 0.000535415342155
50 0.0
51 -0.007088994597911
52 -0.007245374110900
53 0.002167648920715
54 -0.000900815466829
55 -0.001879915368759
56 0.000692490275038
57 -0.007088994597911
58 -0.007245374110900
59 0.002167648920715
60 -0.000900815466829
61 0.001879915368759
62 0.000692490275038
 Sym=      1.2
 Ene=      -0.7458
 Spin= Alpha
 Occup=    2.000000
1 0.0
2 0.0
3 0.0
4 0.0
5 0.0
6 0.001725279103908
7 0.0
8 0.0
9 0.002130764499585
10 0.0
11 0.0
12 0.003281209579691
13 0.0
14 0.0
15 0.0
16 0.0
17 0.000091918361117
18 0.0
19 0.000092773089910
20 0.0
21 0.0
22 0.0
23 0.0
24 0.000037748358771
25 0.0
26 0.0
27 0.0
28 0.0
29 0.0
30 0.001172099953450
31 0.0
32 0.0
33 0.0
34 0.0
35 0.0
36 0.0
37 0.22887446481577
38 0.0
39 0.0
40 0.35159534136916
41 0.0
42 0.0
43 0.21816408591902
44 0.0
45 0.0
46 0.0
47 0.0
48 -0.023985898468639
49 0.0
50 0.016085098182128
51 -0.15067153137141
52 -0.20577619464246
53 -0.049047602932121
54 -0.020557678756941
55 -0.018914105710285
56 0.014834944511501
57 0.15067153137141
58 0.20577619464246
59 0.049047602932121
60 0.020557678756941
61 -0.018914105710285
62 -0.014834944511501
 Sym=      5.1
 Ene=      -0.6925
 Spin= Alpha
 Occup=    2.000000
1 0.000392918275398
2 0.000660420247460
3 -0.001757478892829
4 0.000421788905170
5 -0.10681228198765
6 0.0
7 0.19392216784926
8 -0.16401493953926
9 0.0
10 0.29696054531552
11 -0.098714739800742
12 0.0
13 0.18578572540070
14 -0.020819531585350
15 0.000028332780282
16 0.020791198805068
17 0.0
18 0.014367089467435
19 0.0
20 -0.14622467836933
21 -0.20511187416029
22 -0.057733681823173
23 0.030448824724876
24 0.0
25 -0.002339544555122
26 0.14747097024599
27 0.19696820392766
28 0.061288329002845
29 -0.012195571987839
30 0.0
31 -0.029784673248616
32 -0.002996682738380
33 -0.005128839799601
34 0.015725964627049
35 0.036218819051007
36 0.016308773937309
37 0.0
38 -0.049487333221316
39 0.024636600982544
40 0.0
41 -0.076308113541603
42 0.014041125511388
43 0.0
44 -0.063807042958112
45 -0.000235852886704
46 -0.000246025484703
47 0.000481878371407
48 0.0
49 0.003325569665174
50 0.0
51 -0.016657513921103
52 -0.026177842839551
53 -0.004143200171867
54 -0.000884860184213
55 -0.005596303642103
56 -0.003292559512149
57 -0.016657513921103
58 -0.026177842839551
59 -0.004143200171867
60 -0.000884860184213
61 0.005596303642103
62 -0.003292559512149
 Sym=      6.1
 Ene=      -0.6036
 Spin= Alpha
 Occup=    2.000000
1 0.010099481071398
2 0.017004367273777
3 -0.048051969570840
4 -0.098420042268537
5 0.061270473767865
6 0.0
7 -0.017944076574811
8 0.089776899323118
9 0.0
10 -0.028781146005813
11 0.077064830581952
12 0.0
13 -0.020492564006617
14 0.006206815577896
15 -0.002138798974270
16 -0.004068016603626
17 0.0
18 -0.001027300485663
19 0.0
20 0.043798885056699
21 0.064362625866377
22 0.010220994479437
23 -0.007119191526622
24 0.0
25 0.005268657160456
26 -0.007589826415847
27 -0.003362892148184
28 0.039771360258421
29 0.007071650559908
30 0.0
31 0.003244452394662
32 -0.035409442294175
33 -0.060202956807228
34 0.18202907099254
35 0.30715732866507
36 0.20004598453209
37 0.0
38 -0.14412080453046
39 0.29702442138213
40 0.0
41 -0.21716595495195
42 0.26961185080737
43 0.0
44 -0.19120186451620
45 -0.007132694785409
46 0.003003173243667
47 0.004129521541742
48 0.0
49 0.014799275769603
50 0.0
51 -0.084730698625671
52 -0.12881490529207
53 -0.032875284211976
54 0.006863085444146
55 -0.027319391680598
56 -0.005131342797384
57 -0.084730698625671
58 -0.12881490529207
59 -0.032875284211976
60 0.006863085444146
61 0.027319391680598
62 -0.005131342797384
 Sym=      7.1
 Ene=      -0.5487
 Spin= Alpha
 Occup=    2.000000
1 0.033466780410994
2 0.056923996985320
3 -0.17230348943125
4 -0.28654864114674
5 0.19610603205092
6 0.0
7 0.10245141392228
8 0.29073389686476
9 0.0
10 0.14986149085998
11 0.26084553033805
12 0.0
13 0.14778731839158
14 0.010974700128454
15 -0.011052578564387
16 0.000077878435933
17 0.0
18 0.008105253480706
19 0.0
20 0.082676359841719
21 0.13877653234706
22 0.027980261930436
23 -0.007103462370259
24 0.0
25 0.025334947429069
26 0.070373621834205
27 0.10584426755014
28 0.016274768420187
29 0.018295866006335
30 0.0
31 -0.016698122188132
32 0.009043112028342
33 0.015443733341835
34 -0.048058263021052
35 -0.071262257631368
36 -0.11657097791794
37 0.0
38 -0.076716854339348
39 -0.17517721888096
40 0.0
41 -0.11559788449373
42 -0.17181450525751
43 0.0
44 -0.13005807001858
45 0.006959338062754
46 -0.001387449898103
47 -0.005571888164651
48 0.0
49 -0.000231645711868
50 0.0
51 0.015751459196572
52 0.029336768245180
53 0.004516056549661
54 -0.009841448256172
55 0.005890184254736
56 -0.009511634189778
57 0.015751459196572
58 0.029336768245180
59 0.004516056549661
60 -0.009841448256172
61 -0.005890184254736
62 -0.009511634189778
 Sym=      8.1
 Ene=      -0.5237
 Spin= Alpha
 Occup=    2.000000
1 0.013432476871167
2 0.022900303954803
3 -0.070886240526003
4 -0.11570097820305
5 0.088020593237207
6 0.0
7 0.092465180844351
8 0.12985270698999
9 0.0
10 0.13861649547065
11 0.12528946089147
12 0.0
13 0.12189797012184
14 0.002755804080324
15 -0.005929996098376
16 0.003174192018051
17 0.0
18 0.006796748617647
19 0.0
20 0.021838928316392
21 0.035372688091695
22 0.017456626011804
23 0.001548086084016
24 0.0
25 0.015151614546385
26 0.052139376756746
27 0.091663609494854
28 -0.035468190206232
29 0.009563798528775
30 0.0
31 -0.015997686023102
32 0.002526805730383
33 0.004258415454830
34 -0.010809819816896
35 -0.035396384724498
36 0.13666835540391
37 0.0
38 0.21911062889608
39 0.20529999353579
40 0.0
41 0.32988499736720
42 0.22596555389628
43 0.0
44 0.34200381178679
45 -0.011254322179403
46 -0.000041173025738
47 0.011295495205141
48 0.0
49 -0.006263715129434
50 0.0
51 0.005812674549448
52 0.013410521747399
53 0.009702764729074
54 0.015645162809211
55 0.003377166657784
56 0.022045475839795
57 0.005812674549448
58 0.013410521747399
59 0.009702764729074
60 0.015645162809211
61 -0.003377166657784
62 0.022045475839795
 Sym=      2.2
 Ene=      -0.4725
 Spin= Alpha
 Occup=    2.000000
1 0.0
2 0.0
3 0.0
4 0.0
5 0.0
6 0.29036623667732
7 0.0
8 0.0
9 0.43379664452889
10 0.0
11 0.0
12 0.47057524833861
13 0.0
14 0.0
15 0.0
16 0.0
17 0.014487658024478
18 0.0
19 0.008161409074232
20 0.0
21 0.0
22 0.0
23 0.0
24 0.031352831243363
25 0.0
26 0.0
27 0.0
28 0.0
29 0.0
30 0.029612481169839
31 0.0
32 0.0
33 0.0
34 0.0
35 0.0
36 0.0
37 -0.003049125764877
38 0.0
39 0.0
40 -0.004456822095817
41 0.0
42 0.0
43 0.006270946837852
44 0.0
45 0.0
46 0.0
47 0.0
48 -0.000279607723571
49 0.0
50 -0.000135153708077
51 0.001035185135416
52 0.016555078646046
53 -0.018200420150557
54 0.001489758372629
55 0.000726649743020
56 -0.000636001984539
57 -0.001035185135416
58 -0.016555078646046
59 0.018200420150557
60 -0.001489758372629
61 0.000726649743020
62 0.000636001984539
 Sym=      9.1
 Ene=       0.1346
 Spin= Alpha
 Occup=    0.000000
1 0.012389412659416
2 0.020831973713186
3 -0.055599443690974
4 -0.17804113838340
5 -0.020128453324918
6 0.0
7 -0.019670721989162
8 -0.025255281124860
9 0.0
10 -0.036731226163853
11 -0.055797586925752
12 0.0
13 0.012753229218545
14 -0.001287930498106
15 -0.000319692325722
16 0.001607622823828
17 0.0
18 -0.001723303903285
19 0.0
20 0.014705935264954
21 -0.046479538598491
22 0.35564791457213
23 0.001787624517943
24 0.0
25 -0.007920043858193
26 0.010977665415821
27 -0.063046638056368
28 0.061948608745890
29 -0.000074543567893
30 0.0
31 0.010064110570946
32 0.033898510314264
33 0.055733536141815
34 -0.11456117332864
35 -0.81356357249420
36 0.053824873497424
37 0.0
38 -0.032008165552497
39 0.084753912739542
40 0.0
41 -0.047448118077596
42 0.15529211273446
43 0.0
44 -0.10477786629348
45 -0.001425296053869
46 -0.000853381585026
47 0.002278677638895
48 0.0
49 0.004232081388538
50 0.0
51 0.034110245126251
52 -0.051004258981670
53 0.78698202043902
54 0.002286904099773
55 -0.004899405469776
56 0.000148122993131
57 0.034110245126251
58 -0.051004258981670
59 0.78698202043902
60 0.002286904099773
61 0.004899405469776
62 0.000148122993131
 Sym=     10.1
 Ene=       0.1948
 Spin= Alpha
 Occup=    0.000000
1 0.027891988060968
2 0.045463353347368
3 -0.084614295638296
4 -0.72578751752027
5 -0.078315317400289
6 0.0
7 0.023902740138789
8 -0.10796076691184
9 0.0
10 0.012365431299909
11 -0.25874525993900
12 0.0
13 0.11998984322391
14 -0.005221870606080
15 0.004505475745886
16 0.000716394860194
17 0.0
18 0.000716013097814
19 0.0
20 0.037508536649411
21 -0.12949057019098
22 1.43016345397797
23 0.004898209989336
24 0.0
25 -0.005760597267410
26 0.020101394345671
27 0.000913817308311
28 0.040003897145080
29 -0.005934970465531
30 0.0
31 -0.003797199937000
32 -0.006904069917300
33 -0.010778760878966
34 0.007781594025610
35 0.27383634160370
36 -0.023199937574193
37 0.0
38 0.034135710562628
39 -0.039549919741622
40 0.0
41 0.058796819619407
42 -0.061506479000618
43 0.0
44 0.064536817236900
45 -0.000561792394716
46 -0.000883943117774
47 0.001445735512490
48 0.0
49 -0.003417919353084
50 0.0
51 -0.009101920338129
52 0.005692351230345
53 -0.27759567776215
54 -0.001070795021793
55 0.003121938006536
56 0.004500509160373
57 -0.009101920338129
58 0.005692351230345
59 -0.27759567776215
60 -0.001070795021793
61 -0.003121938006536
62 0.004500509160373
 Sym=      3.2
 Ene=       0.2058
 Spin= Alpha
 Occup=    0.000000
1 0.0
2 0.0
3 0.0
4 0.0
5 0.0
6 0.011123287457180
7 0.0
8 0.0
9 0.020325358676060
10 0.0
11 0.0
12 0.010065495071851
13 0.0
14 0.0
15 0.0
16 0.0
17 0.000618926488827
18 0.0
19 -0.001369829172048
20 0.0
21 0.0
22 0.0
23 0.0
24 0.003068571261534
25 0.0
26 0.0
27 0.0
28 0.0
29 0.0
30 -0.000036324052871
31 0.0
32 0.0
33 0.0
34 0.0
35 0.0
36 0.0
37 0.12098461031005
38 0.0
39 0.0
40 0.13146661074599
41 0.0
42 0.0
43 0.49166501455220
44 0.0
45 0.0
46 0.0
47 0.0
48 -0.003980854256404
49 0.0
50 0.002416405060786
51 0.024929658807174
52 -0.11955267863340
53 1.56420077091938
54 -0.007190016699455
55 -0.009421051256588
56 0.005173866493694
57 -0.024929658807174
58 0.11955267863340
59 -1.56420077091938
60 0.007190016699455
61 -0.009421051256588
62 -0.005173866493694
 Sym=     11.1
 Ene=       0.3275
 Spin= Alpha
 Occup=    0.000000
1 0.019423677283201
2 0.032541271243437
3 -0.080711943157135
4 -0.42168850339764
5 0.032172215551209
6 0.0
7 -0.10590589757945
8 0.025476915508798
9 0.0
10 -0.11494661439975
11 0.17960000650303
12 0.0
13 -0.41794429558409
14 0.002140128316107
15 0.001458531159329
16 -0.003598659475436
17 0.0
18 -0.002091437901794
19 0.0
20 -0.007863292291883
21 0.067648122559507
22 -1.20816230137437
23 -0.004493591745259
24 0.0
25 0.003612911860458
26 0.046018208105459