
 Working directory              : /tmp/lme/molpro.fkX5b1Kwoi/
 Global scratch directory       : /tmp/lme/molpro.fkX5b1Kwoi/
 Wavefunction directory         : /home/lme/wfu/
 Main file repository           : /tmp/lme/molpro.fkX5b1Kwoi/

 id        : liedlgroup

 Nodes     nprocs
 sv1-c724     6
 GA implementation: MPI file
 GA implementation (serial work in mppx): MPI file

 Using customized tuning parameters: mindgm=1; mindgv=20; mindgc=4; mindgr=1; noblas=0; minvec=7
 default implementation of scratch files=sf  


 Variables initialized (1042), CPU time= 0.00 sec
 ***,Methanol_Methanol
 memory, 200, m                                                                  ! Memory Requirements
                           !gthresh, optgrad=1.d-7,twoint=1.d-14,prefac=1.d-16 ! Guntram Rezept um numerischen Schmutz zu entfernen
 orient,mass
 geometry = {
   O,    -0.00001000,   0.00000000,   0.00000000
   H,     0.94422200,  -0.02379700,  -0.20413500
   C,    -0.51594000,  -1.28800600,  -0.26533900
   H,    -1.57382000,  -1.27298300,  -0.01664300
   H,    -0.42048500,  -1.56938900,  -1.31679000
   H,    -0.03871100,  -2.06299100,   0.33991200
   O,     2.84654400,  -0.09884000,  -0.29270200
   H,     3.31533400,   0.51554500,  -0.86236800
   C,     3.35537800,   0.05817900,   1.02901600
   H,     2.80180900,  -0.63001700,   1.65914700
   H,     4.41437400,  -0.19226000,   1.08573900
   H,     3.20293800,   1.06887300,   1.4069080
 }
 mass, iso
 basis=6-311g(d,p)
 
 {hf
 start,atden}
 
 optg
 {frequencies, symm=auto, print=0,analytical}
 put,molden,methanol_methanol.molden
 Commands initialized (847), CPU time= 0.01 sec, 718 directives.
 Default parameters read. Elapsed time= 0.08 sec

 Checking input...
 Passed
1


                                         ***  PROGRAM SYSTEM MOLPRO  ***
                                       Copyright, TTI GmbH Stuttgart, 2015
                                    Version 2024.1 linked Wed Jan 31 11:42:09 2024


 **********************************************************************************************************************************
 LABEL *   Methanol_Methanol                                                                                                                                             
  (6 PROC) 64 bit mpp version                                                            DATE: 24-Oct-24          TIME: 08:34:21  
 **********************************************************************************************************************************

 SHA1:             675817fde4514a4a933b69e420913a90cee4ef91
 **********************************************************************************************************************************

 Memory per process:       200 MW
 Total memory per node:   1200 MW

 GA preallocation disabled
 GA check disabled

 Variable memory set to 200.0 MW

 ZCENTRE=MASS


 Geometry recognized as XYZ



 Using masses of most abundant isotopes

 **********************************************************************************************************************************
 SETTING BASIS          =    6-311G(D,P)


 Recomputing integrals since basis changed


 Using spherical harmonics

 Library entry O      S 6-311G               selected for orbital group  1
 Library entry O      P 6-311G               selected for orbital group  1
 Library entry O      D 6-311G*              selected for orbital group  1
 Library entry H      S 6-311G               selected for orbital group  2
 Library entry H      P 6-311G**             selected for orbital group  2
 Library entry C      S 6-311G               selected for orbital group  3
 Library entry C      P 6-311G               selected for orbital group  3
 Library entry C      D 6-311G*              selected for orbital group  3


 PROGRAM * SEWARD (Integral evaluation for generally contracted gaussian basis sets)     Author: Roland Lindh, 1990

 Geometry written to block  1 of record 700

 Orientation using atomic masses  
 Molecule type: Asymmetric top
 Rotational constants:       2.2959883      2.3319736     16.2805440 GHz

 Point group  C1  



 ATOMIC COORDINATES

 NR  ATOM    CHARGE       X              Y              Z

   1  O       8.00    1.057808720    0.654431149   -2.506164796
   2  H       1.00    0.862138762   -0.148078043   -0.877547731
   3  C       6.00   -0.887270721   -0.275566889   -4.080331531
   4  H       1.00   -0.701008217    0.652190908   -5.903148497
   5  H       1.00   -0.753292903   -2.313278193   -4.385377125
   6  H       1.00   -2.770447039    0.143442357   -3.342530109
   7  O       8.00    0.218583888   -1.214697127    2.501706017
   8  H       1.00    1.515187938   -2.091883771    3.418765940
   9  C       6.00   -0.483085765    0.951835554    3.938668970
  10  H       1.00   -1.921995616    1.933472477    2.857239309
  11  H       1.00   -1.274504229    0.430016334    5.766694845
  12  H       1.00    1.103249996    2.233727901    4.223419306

 Bond lengths in Bohr (Angstrom)

 1-2  1.826116447  1-3  2.669500195  3-4  2.053798904  3-5  2.064768808  3-6  2.065495760
     ( 0.966339208)     ( 1.412638668)     ( 1.086823576)     ( 1.092628599)     ( 1.093013285)

  7- 8  1.814287015   7- 9  2.692780476   9-10  2.050259183   9-11  2.059203021   9-12  2.059318307
       ( 0.960079342)       ( 1.424958062)       ( 1.084950436)       ( 1.089683312)       ( 1.089744318)

 Bond angles

  1-3-4  107.45239475   1-3-5  112.56020294   1-3-6  112.51992716   2-1-3  107.14176652

  4- 3- 5  107.98695327   4- 3- 6  107.94345878   5- 3- 6  108.18797719   7- 9-10  106.65585692

  7- 9-11  111.71492945   7- 9-12  111.95599659   8- 7- 9  107.78759478  10- 9-11  108.65333678

 10- 9-12  108.39235613  11- 9-12  109.33258926

 NUCLEAR CHARGE:                   36
 NUMBER OF PRIMITIVE AOS:         192
 NUMBER OF SYMMETRY AOS:          188
 NUMBER OF CONTRACTIONS:          120   (  120A   )
 NUMBER OF INNER CORE ORBITALS:     0   (    0A   )
 NUMBER OF OUTER CORE ORBITALS:     4   (    4A   )
 NUMBER OF VALENCE ORBITALS:       24   (   24A   )


 NUCLEAR REPULSION ENERGY  129.52155714


 Eigenvalues of metric

         1 0.821E-02 0.868E-02 0.181E-01 0.196E-01 0.217E-01 0.224E-01 0.229E-01 0.233E-01


 Contracted 2-electron integrals neglected if value below      1.0D-11
 AO integral compression algorithm  1   Integral accuracy      1.0D-11

     73.138 MB (compressed) written to integral file ( 32.4%)

     Node minimum: 9.961 MB, node maximum: 13.631 MB


 NUMBER OF SORTED TWO-ELECTRON INTEGRALS:    4395930.     BUFFER LENGTH:  32768
 NUMBER OF SEGMENTS:   1  SEGMENT LENGTH:    4395930      RECORD LENGTH: 524288

 Memory used in sort:       4.95 MW

 SORT1 READ    28248419. AND WROTE     2874206. INTEGRALS IN      9 RECORDS. CPU TIME:     0.28 SEC, REAL TIME:     0.33 SEC
 SORT2 READ    16686901. AND WROTE    26357430. INTEGRALS IN    294 RECORDS. CPU TIME:     0.07 SEC, REAL TIME:     0.09 SEC

 Node minimum:     4389880.  Node maximum:     4395930. integrals

 OPERATOR DM      FOR CENTER  0  COORDINATES:    0.000000    0.000000    0.000000


 **********************************************************************************************************************************
 DATASETS  * FILE   NREC   LENGTH (MB)   RECORD NAMES
              1      18       29.31       500      610      700      900      950      970     1000      129      960     1100   
                                          VAR    BASINP    GEOM    SYMINP    ZMAT    AOBASIS   BASIS     P2S    ABASIS      S 
                                         1400     1410     1200     1210     1080     1600     1650     1700   
                                           T        V       H0       H01     AOSYM     SMH    MOLCAS    OPER   

 PROGRAMS   *        TOTAL       INT
 CPU TIMES  *         0.84      0.71
 REAL TIME  *         1.02 SEC
 DISK USED  *        29.83 MB (local),      441.44 MB (total)
 GA USED    *         0.00 MB       (max)       0.00 MB       (current)
 **********************************************************************************************************************************


 Program * Restricted Hartree-Fock

 Orbital guess generated from atomic densities.

 Initial occupancy:  18

 NELEC=   36   SYM=1   MS2= 0   THRE=1.0D-08   THRD=1.0D-06   THRG=1.0D-06  HFMA2=F  DIIS_START=2   DIIS_MAX=10   DIIS_INCORE=F

 Level shifts:    0.00 (CLOSED)    0.00 (OPEN)    0.30 (GAP_MIN)

 ITER           ETOT              DE          GRAD        DDIFF     DIIS  NEXP   TIME(IT)  TIME(TOT)  DIAG
   1     -230.09234689    -230.09234689     0.00D+00     0.39D-01     0     0       0.03      0.08    start
   2     -230.14655186      -0.05420497     0.61D-02     0.45D-02     1     0       0.03      0.11    diag
   3     -230.15768628      -0.01113442     0.30D-02     0.15D-02     2     0       0.02      0.13    diag
   4     -230.15864232      -0.00095604     0.67D-03     0.52D-03     3     0       0.03      0.16    diag
   5     -230.15869092      -0.00004860     0.12D-03     0.15D-03     4     0       0.04      0.20    diag
   6     -230.15869286      -0.00000194     0.22D-04     0.32D-04     5     0       0.04      0.24    diag
   7     -230.15869296      -0.00000009     0.55D-05     0.51D-05     6     0       0.03      0.27    diag
   8     -230.15869297      -0.00000001     0.18D-05     0.20D-05     7     0       0.03      0.30    fixocc
   9     -230.15869297      -0.00000000     0.40D-06     0.50D-06     8     0       0.04      0.34    diag
  10     -230.15869297      -0.00000000     0.14D-06     0.11D-06     0     0       0.03      0.37    diag/orth

 Final occupancy:  18

 !RHF STATE 1.1 Energy               -230.158692969726
  RHF One-electron energy            -571.690898219812
  RHF Two-electron energy             212.010648110960
  RHF Kinetic energy                  230.043688449218
  RHF Nuclear energy                  129.521557139126
  RHF Virial quotient                  -1.000499924694

 !RHF STATE 1.1 Dipole moment          -0.23824485    -0.28026390     1.14938426
 Dipole moment /Debye                  -0.60555800    -0.71235977     2.92144339

 Orbital energies:

           1.1          2.1          3.1          4.1          5.1          6.1          7.1          8.1          9.1         10.1
    -20.573116   -20.512972   -11.283308   -11.248685    -1.378124    -1.323928    -0.941576    -0.901645    -0.713536    -0.668010

          11.1         12.1         13.1         14.1         15.1         16.1         17.1         18.1         19.1         20.1
     -0.633112    -0.607486    -0.594705    -0.566157    -0.524121    -0.481915    -0.462597    -0.419812     0.140134     0.173355


 HOMO     18.1    -0.419812 =     -11.4237eV
 LUMO     19.1     0.140134 =       3.8132eV
 LUMO-HOMO         0.559946 =      15.2369eV

 Orbitals saved in record  2100.2


 **********************************************************************************************************************************
 DATASETS  * FILE   NREC   LENGTH (MB)   RECORD NAMES
              1      18       29.31       500      610      700      900      950      970     1000      129      960     1100   
                                          VAR    BASINP    GEOM    SYMINP    ZMAT    AOBASIS   BASIS     P2S    ABASIS      S 
                                         1400     1410     1200     1210     1080     1600     1650     1700   
                                           T        V       H0       H01     AOSYM     SMH    MOLCAS    OPER   

              2       4        0.79       700     1000      520     2100   
                                         GEOM     BASIS   MCVARS     RHF  

 PROGRAMS   *        TOTAL    HF-SCF       INT
 CPU TIMES  *         1.22      0.38      0.71
 REAL TIME  *         1.43 SEC
 DISK USED  *        31.13 MB (local),      449.20 MB (total)
 GA USED    *         0.00 MB       (max)       0.00 MB       (current)
 **********************************************************************************************************************************


 PROGRAM * OPT (Geometry optimization)     Authors: F. Eckert and H.-J. Werner


 BFGS update of hessian

 *** Long output written to logfile /home/lme/Theoretische_Chemie/Paper/Calc_Paper/methanol_dimer/methanol_methanol.log ***


 Geometry optimization using default procedure for command HF-SCF

 Geometry written to block  1 of record 700

 PQS Optimization using delocalized internal coordinates

 Point group c1. Number of degrees of freedom:   30

 ITER.   ENERGY(OLD)    ENERGY(NEW)      DE          GRADMAX     GRADNORM    GRADRMS     STEPMAX     STEPLEN     STEPRMS   CPU-time
   1  -230.15869297  -230.16032743    -0.00163446  0.01844432  0.03705544  0.00676537  0.06811439  0.11417166  0.02084480      1.99
   2  -230.16032743  -230.16045181    -0.00012437  0.00237971  0.00477797  0.00087233  0.02493077  0.07048346  0.01286846      3.69
   3  -230.16045181  -230.16051666    -0.00006486  0.00092166  0.00260482  0.00047557  0.04141853  0.08619717  0.01573738      5.34
   4  -230.16051666  -230.16054453    -0.00002787  0.00079352  0.00154009  0.00028118  0.03685993  0.07236801  0.01343840      7.06
   5  -230.16054453  -230.16055376    -0.00000923  0.00082001  0.00131466  0.00024002  0.02000801  0.04342803  0.00806438      8.95
   6  -230.16055376  -230.16055722    -0.00000346  0.00019785  0.00051101  0.00009330  0.00773099  0.02154374  0.00393333     10.70
   7  -230.16055722  -230.16056344    -0.00000622  0.00016854  0.00038316  0.00006996  0.01929124  0.04611245  0.00841894     12.58
   8  -230.16056344  -230.16057363    -0.00001019  0.00053091  0.00079320  0.00014482  0.04039832  0.09151046  0.01670745     14.44
   9  -230.16057363  -230.16058351    -0.00000988  0.00079708  0.00117436  0.00021441  0.04842256  0.10767300  0.01965831     16.38
  10  -230.16058351  -230.16058971    -0.00000620  0.00062510  0.00103260  0.00018853  0.03478961  0.07648798  0.01396473     18.27
  11  -230.16058971  -230.16059390    -0.00000419  0.00029295  0.00063294  0.00011556  0.02081622  0.04679764  0.00854404     20.19
  12  -230.16059390  -230.16060041    -0.00000651  0.00029836  0.00063433  0.00011581  0.02802297  0.06714963  0.01225979     22.11
  13  -230.16060041  -230.16061068    -0.00001027  0.00058950  0.00103231  0.00018847  0.04148458  0.10043382  0.01833662     24.03
  14  -230.16061068  -230.16062272    -0.00001204  0.00082368  0.00142055  0.00025936  0.04280499  0.10330815  0.01886140     25.94
  15  -230.16062272  -230.16063170    -0.00000898  0.00064703  0.00126366  0.00023071  0.02715643  0.06893098  0.01258502     27.96
  16  -230.16063170  -230.16063592    -0.00000421  0.00035334  0.00061913  0.00011304  0.01793111  0.04087675  0.00746304     29.81
  17  -230.16063592  -230.16063878    -0.00000286  0.00025583  0.00041613  0.00007597  0.01764221  0.03871898  0.00706909     31.58
  18  -230.16063878  -230.16064230    -0.00000353  0.00031644  0.00062552  0.00011420  0.02406510  0.05437105  0.00992675     33.32
  19  -230.16064230  -230.16064566    -0.00000335  0.00044142  0.00073412  0.00013403  0.02037606  0.04685185  0.00870017     35.03
  20  -230.16064566  -230.16064896    -0.00000330  0.00031074  0.00055129  0.00010065  0.01389116  0.03156658  0.00576324     36.85
  21  -230.16064896  -230.16065234    -0.00000339  0.00019349  0.00031972  0.00005837  0.01123031  0.02151796  0.00392862     38.55
  22  -230.16065234  -230.16065610    -0.00000375  0.00034727  0.00050778  0.00009271  0.01797337  0.03372087  0.00615656     40.27
  23  -230.16065610  -230.16065783    -0.00000173  0.00055304  0.00070663  0.00012901  0.01701109  0.03817600  0.00696995     42.03
  24  -230.16065783  -230.16066036    -0.00000253  0.00049766  0.00062749  0.00011456  0.01737671  0.03972811  0.00725333     43.71
  25  -230.16066036  -230.16066103    -0.00000067  0.00013471  0.00019610  0.00003580  0.00420488  0.00706200  0.00128934     45.36

 END OF GEOMETRY OPTIMIZATION.

 Geometry written to block  1 of record 700

 Recomputing wavefunction for reoriented structure

 Current geometry (xyz format, in Angstrom)

   12
 HF-SCF000/6-311G(D,P)  ENERGY=-230.16066103
 O          0.4525804284        0.4747382978       -1.3688110290
 H          0.5304496265        0.0428405863       -0.5333879268
 C         -0.4131763667       -0.2590434911       -2.1796395276
 H         -0.5035940303        0.2608220848       -3.1257077372
 H         -0.0375752475       -1.2620532282       -2.3793079203
 H         -1.4076734599       -0.3477690453       -1.7442434338
 O          0.2235113389       -0.5913871512        1.3402763527
 H          0.7178440946       -1.1846312568        1.8760873025
 C         -0.3128711195        0.4415147406        2.1290096246
 H         -0.8121604552        1.1257967873        1.4576229694
 H         -1.0365915866        0.0598313201        2.8439766581
 H          0.4641601500        0.9838102522        2.6606675925

 **********************************************************************************************************************************


 **********************************************************************************************************************************
 DATASETS  * FILE   NREC   LENGTH (MB)   RECORD NAMES
              1      18       29.31       500      610      700      900      950      970     1000      129      960     1100   
                                          VAR    BASINP    GEOM    SYMINP    ZMAT    AOBASIS   BASIS     P2S    ABASIS      S 
                                         1400     1410     1200     1210     1080     1600     1650     1700   
                                           T        V       H0       H01     AOSYM     SMH    MOLCAS    OPER   

              2       4        0.79       700     1000      520     2100   
                                         GEOM     BASIS   MCVARS     RHF  

 PROGRAMS   *        TOTAL      OPTG    HF-SCF       INT
 CPU TIMES  *        47.59     46.37      0.38      0.71
 REAL TIME  *        51.70 SEC
 DISK USED  *        31.18 MB (local),      450.43 MB (total)
 SF USED    *         0.11 MB
 GA USED    *         0.00 MB       (max)       0.00 MB       (current)
 **********************************************************************************************************************************


 PROGRAM * HESSIAN

 PROGRAM * MCKINLEY (Hessian of the energy)     Author: A. Bernhardsson, R. Lindh

 Orbitals from record         2100.2

 Number of closed-shell orbitals: 18 ( 18 )
 Number of occupied orbitals:     18 ( 18 )

 Number of electrons= 36     Singlet     Space symmetry=1      Wavefunction type: CLOSED          


 McKinley needed     10.05 seconds of CPU time

 Entering CPHF calculation

 CPHF needed 301 iterations for 36 perturbations.  Total CPU time:   11.86 sec


 HF-SCF hessian saved to record  5300.2

 PROGRAM * FREQUENCIES (Calculation of harmonic vibrational spectra for HF-SCF)


 Permanent Dipole Moment [debye]
     1-   3    0.000000    0.000000    0.000000

 Dipole Moment Norm    0.0000000 [debye]

 Dipole Moment Derivatives [debye/ang]
              1             2             3             4             5             6             7             8
    1    0.00000000    0.00000000    0.00000000    0.00000000    0.00000000    0.00000000    0.00000000    0.00000000
    2    0.00000000    0.00000000    0.00000000    0.00000000    0.00000000    0.00000000    0.00000000    0.00000000
    3    0.00000000    0.00000000    0.00000000    0.00000000    0.00000000    0.00000000    0.00000000    0.00000000
              9            10            11            12            13            14            15            16
    1    0.00000000    0.00000000    0.00000000    0.00000000    0.00000000    0.00000000    0.00000000    0.00000000
    2    0.00000000    0.00000000    0.00000000    0.00000000    0.00000000    0.00000000    0.00000000    0.00000000
    3    0.00000000    0.00000000    0.00000000    0.00000000    0.00000000    0.00000000    0.00000000    0.00000000
             17            18            19            20            21            22            23            24
    1    0.00000000    0.00000000    0.00000000    0.00000000    0.00000000    0.00000000    0.00000000    0.00000000
    2    0.00000000    0.00000000    0.00000000    0.00000000    0.00000000    0.00000000    0.00000000    0.00000000
    3    0.00000000    0.00000000    0.00000000    0.00000000    0.00000000    0.00000000    0.00000000    0.00000000
             25            26            27            28            29            30            31            32
    1    0.00000000    0.00000000    0.00000000    0.00000000    0.00000000    0.00000000    0.00000000    0.00000000
    2    0.00000000    0.00000000    0.00000000    0.00000000    0.00000000    0.00000000    0.00000000    0.00000000
    3    0.00000000    0.00000000    0.00000000    0.00000000    0.00000000    0.00000000    0.00000000    0.00000000
             33            34            35            36
    1    0.00000000    0.00000000    0.00000000    0.00000000
    2    0.00000000    0.00000000    0.00000000    0.00000000
    3    0.00000000    0.00000000    0.00000000    0.00000000

 Projecting out rotations and translations

 Force Constants (Second Derivatives of the Energy) in [a.u.]
                             OX1         OY1         OZ1         HX2         HY2     
           OX1           0.2166923
           OY1           0.1233439   0.3393489
           OZ1           0.1653878  -0.1551752   0.6683997
           HX2          -0.0317369  -0.0144879  -0.0270558   0.0423188
           HY2           0.0060428  -0.1721644   0.2593103   0.0007232   0.1647629
           HZ2          -0.0573614   0.2155406  -0.4665055   0.0598847  -0.2235032
           CX3          -0.1647549  -0.0726382  -0.0902189  -0.0037769  -0.0039616
           CY3          -0.0894163  -0.1599148  -0.0692398   0.0144210   0.0141067
           CZ3          -0.0650403  -0.0324030  -0.1703629  -0.0311335  -0.0291189
           HX4          -0.0044305   0.0112099  -0.0321754  -0.0032194  -0.0037049
           HY4          -0.0045153   0.0147234  -0.0271349  -0.0032907  -0.0022130
           HZ4          -0.0090364   0.0070651  -0.0276025  -0.0031129  -0.0041947
           HX5           0.0093692  -0.0339577  -0.0110306   0.0009687   0.0003331
           HY5          -0.0066423  -0.0205901  -0.0151446  -0.0001726  -0.0001994
           HZ5          -0.0010570  -0.0303220  -0.0081586   0.0011316  -0.0014622
           HX6          -0.0277113  -0.0132350  -0.0050975  -0.0001965  -0.0007284
           HY6          -0.0286779  -0.0031995   0.0028178   0.0013391   0.0000252
           HZ6          -0.0322717  -0.0075502   0.0114782  -0.0002343   0.0003637
           OX7           0.0040403  -0.0000200   0.0007468  -0.0054637   0.0011943
           OY7          -0.0003326   0.0028950   0.0037401   0.0012105  -0.0058038
           OZ7          -0.0013613   0.0021174  -0.0073035   0.0012207   0.0004077
           HX8          -0.0006058  -0.0001313   0.0010343   0.0011946  -0.0001495
           HY8          -0.0002070  -0.0000368  -0.0013094  -0.0000813  -0.0005115
           HZ8           0.0007948  -0.0001695  -0.0013953  -0.0022617   0.0006037
           CX9          -0.0014374   0.0009109  -0.0010778   0.0007947  -0.0012826
           CY9           0.0014149  -0.0022664   0.0020257  -0.0007032   0.0041585
           CZ9           0.0000907   0.0005558   0.0024310   0.0018372  -0.0012780
           HX10          0.0000193  -0.0007559  -0.0007956  -0.0004008   0.0009620
           HY10         -0.0006614   0.0003385   0.0004371   0.0007572  -0.0005972
           HZ10         -0.0002284   0.0001573   0.0002999   0.0003330  -0.0002499
           HX11          0.0002911  -0.0001655   0.0003493  -0.0002287   0.0003985
           HY11         -0.0001772   0.0005860   0.0000044   0.0002757  -0.0009611
           HZ11         -0.0002105  -0.0000814  -0.0009654  -0.0000941  -0.0002754
           HX12          0.0002645  -0.0000732  -0.0000665  -0.0002541   0.0001730
           HY12         -0.0001717   0.0002802  -0.0003315   0.0000092  -0.0006029
           HZ12          0.0002937   0.0002650  -0.0003152  -0.0005148  -0.0006032
                             HZ2         CX3         CY3         CZ3         HX4     
           HZ2           0.4909917
           CX3          -0.0051388   0.6007642
           CY3           0.0098310  -0.0170539   0.6206431
           CZ3          -0.0251500  -0.0162901  -0.0393156   0.6439035
           HX4          -0.0018641  -0.0606913   0.0058222  -0.0061476   0.0630048
           HY4          -0.0029660   0.0113108  -0.1352745   0.1308887  -0.0049239
           HZ4           0.0005188  -0.0140615   0.1190830  -0.2638707   0.0247925
           HX5           0.0016997  -0.1027055   0.0968563   0.0164565   0.0004420
           HY5           0.0016796   0.0918898  -0.2744545  -0.0345100   0.0087033
           HZ5           0.0013611   0.0161081  -0.0310423  -0.0695012  -0.0129689
           HX6           0.0021392  -0.2681135  -0.0101745   0.1019807   0.0046403
           HY6           0.0012772  -0.0083785  -0.0632721   0.0052225  -0.0174123
           HZ6           0.0021347   0.1073238   0.0085198  -0.1163134   0.0288350
           OX7          -0.0004418  -0.0019830  -0.0008754  -0.0004076   0.0003823
           OY7          -0.0001333  -0.0008483  -0.0018894  -0.0006088   0.0002854
           OZ7          -0.0027203   0.0027245   0.0023267   0.0016684  -0.0004991
           HX8          -0.0015655   0.0000953  -0.0000887  -0.0000224   0.0000038
           HY8           0.0016993   0.0002998   0.0005999   0.0006587  -0.0000191
           HZ8           0.0017509   0.0001441   0.0005751   0.0004449  -0.0000270
           CX9           0.0032740   0.0009440   0.0003288   0.0003355  -0.0001360
           CY9          -0.0049489  -0.0009872  -0.0003627  -0.0005190   0.0001250
           CZ9          -0.0042574  -0.0008003  -0.0008694  -0.0010311   0.0000775
           HX10          0.0001185   0.0006033   0.0003118   0.0003793  -0.0000503
           HY10          0.0002209   0.0001822  -0.0001844  -0.0003393  -0.0000521
           HZ10          0.0000845  -0.0002311  -0.0002610  -0.0003584   0.0000246
           HX11         -0.0007005  -0.0001921  -0.0001348  -0.0001642   0.0000268
           HY11          0.0005513  -0.0000003  -0.0000472  -0.0000649  -0.0000130
           HZ11          0.0012001   0.0005049   0.0003423   0.0004208  -0.0000594
           HX12         -0.0000440  -0.0001895   0.0000035   0.0000536   0.0000276
           HY12          0.0007513   0.0001854   0.0000499   0.0001096  -0.0000205
           HZ12          0.0005913  -0.0000645   0.0000501   0.0001499   0.0000120
                             HY4         HZ4         HX5         HY5         HZ5     
           HY4           0.1371722
           HZ4          -0.1294698   0.2953689
           HX5           0.0011209   0.0005831   0.1034064
           HY5          -0.0154984  -0.0016977  -0.0950945   0.3063170
           HZ5           0.0288821   0.0082022  -0.0118898   0.0491444   0.0684711
           HX6           0.0001565   0.0008001  -0.0114593   0.0013114   0.0087300
           HY6           0.0007392   0.0088725   0.0307463   0.0039659  -0.0155993
           HZ6           0.0000931  -0.0120432   0.0043901   0.0009161  -0.0003183
           OX7           0.0001464   0.0001849   0.0001106   0.0000583  -0.0000633
           OY7           0.0004626   0.0000863  -0.0001321   0.0006099   0.0005593
           OZ7          -0.0001968  -0.0007648  -0.0002603  -0.0004358  -0.0000721
           HX8          -0.0000056   0.0000664   0.0000437   0.0000464   0.0000063
           HY8          -0.0000576  -0.0001051   0.0000175  -0.0001821  -0.0001122
           HZ8          -0.0001126  -0.0000834  -0.0000002  -0.0001962  -0.0001613
           CX9           0.0000208  -0.0001966  -0.0001542   0.0000519   0.0001373
           CY9          -0.0000783   0.0003746   0.0002152  -0.0001148  -0.0002164
           CZ9          -0.0000185   0.0003734   0.0000597   0.0002357   0.0001245
           HX10         -0.0000254  -0.0000507  -0.0000775  -0.0001481  -0.0000996
           HY10         -0.0000010   0.0000599  -0.0000534   0.0000881   0.0000731
           HZ10          0.0000098   0.0000592   0.0000248   0.0000881   0.0000553
           HX11         -0.0000011   0.0000567   0.0000185   0.0000183  -0.0000088
           HY11          0.0000030  -0.0000197  -0.0000024   0.0000483   0.0000521
           HZ11         -0.0000044  -0.0000911  -0.0000403  -0.0000834  -0.0000261
           HX12          0.0000066  -0.0000257   0.0000375  -0.0000219  -0.0000260
           HY12          0.0000224  -0.0000545  -0.0000491   0.0000100   0.0000434
           HZ12          0.0000291  -0.0000667   0.0000071   0.0000037   0.0000233
                             HX6         HY6         HZ6         OX7         OY7     
           HX6           0.3024064
           HY6           0.0223944   0.0616833
           HZ6          -0.1081447  -0.0022268   0.1150712
           OX7           0.0007983   0.0001330   0.0001151   0.2828480
           OY7           0.0003184  -0.0000828  -0.0000547  -0.3067501   0.4948662
           OZ7          -0.0004553  -0.0003802   0.0000121   0.1218306  -0.0817675
           HX8          -0.0001081   0.0000451   0.0000033  -0.1741484   0.2094888
           HY8          -0.0000317  -0.0000502   0.0000278   0.1996067  -0.2529111
           HZ8           0.0000289  -0.0000465   0.0000399  -0.1949937   0.2254143
           CX9          -0.0002328  -0.0002276  -0.0000138  -0.1092870   0.0606044
           CY9           0.0001085   0.0003431  -0.0000314   0.0694867  -0.1938778
           CZ9          -0.0000177   0.0001002  -0.0000627   0.0469601  -0.0985534
           HX10         -0.0001549  -0.0000354  -0.0000103  -0.0087941   0.0157854
           HY10         -0.0001045  -0.0000649  -0.0000674   0.0209776  -0.0271875
           HZ10          0.0000500  -0.0000090  -0.0000291   0.0162164  -0.0223336
           HX11          0.0000401   0.0000398  -0.0000037  -0.0079640   0.0064172
           HY11          0.0000019  -0.0000244   0.0000048   0.0284457   0.0070739
           HZ11         -0.0001000  -0.0000335   0.0000038   0.0194004  -0.0051048
           HX12          0.0000913   0.0000339   0.0000112   0.0194607   0.0139531
           HY12         -0.0000169  -0.0000630   0.0000050  -0.0124032  -0.0241550
           HZ12          0.0000864   0.0000050   0.0000268  -0.0095479  -0.0212440
                             OZ7         HX8         HY8         HZ8         CX9     
           OZ7           0.4556644
           HX8          -0.1650785   0.1810354
           HY8           0.1784200  -0.2176854   0.2752782
           HZ8          -0.2562580   0.1750628  -0.1982799   0.2394355
           CX9           0.0199778  -0.0081224   0.0183027   0.0179179   0.6340074
           CY9          -0.0575906   0.0091687  -0.0211814  -0.0223960   0.0114286
           CZ9          -0.1755599  -0.0116158   0.0224751   0.0177798   0.0332746
           HX10         -0.0075384  -0.0001174   0.0018197   0.0026610  -0.1194380
           HY10          0.0154843   0.0012994  -0.0035919  -0.0046780   0.0761985
           HZ10          0.0190903   0.0027649  -0.0050825  -0.0021232  -0.0915744
           HX11          0.0153122  -0.0007460  -0.0007441   0.0009037  -0.1799637
           HY11         -0.0324538  -0.0002612   0.0019699  -0.0001557  -0.0739037
           HZ11         -0.0186116  -0.0007757   0.0003074   0.0001484   0.1101249
           HX12          0.0141273   0.0014753  -0.0012779  -0.0002305  -0.2169747
           HY12         -0.0259315  -0.0017268   0.0006745  -0.0005588  -0.0924328
           HZ12         -0.0151449   0.0001200   0.0013008   0.0004218  -0.0921795
                             CY9         CZ9         HX10        HY10        HZ10    
           CY9           0.6050596
           CZ9          -0.0534517   0.6381218
           HX10          0.0775355  -0.0819589   0.1248342
           HY10         -0.1649411   0.1096763  -0.0960492   0.1883049
           HZ10          0.1244020  -0.1858240   0.0898087  -0.1195353   0.1907564
           HX11         -0.0706167   0.1105940   0.0145402   0.0054726  -0.0108388
           HY11         -0.1062209   0.0752633  -0.0161473  -0.0067711   0.0128753
           HZ11          0.0686641  -0.1711690   0.0160031   0.0100278  -0.0129831
           HX12         -0.0971758  -0.0985010  -0.0109638  -0.0079670  -0.0063496
           HY12         -0.1205178  -0.0541356   0.0167468   0.0146075   0.0099389
           HZ12         -0.0563123  -0.1209264  -0.0185170  -0.0113595  -0.0090278
                             HX11        HY11        HZ11        HX12        HY12    
           HX11          0.1903997
           HY11          0.0720509   0.1087137
           HZ11         -0.1331061  -0.0676674   0.1875212
           HX12         -0.0162218  -0.0102690  -0.0116471   0.2232469
           HY12         -0.0127351  -0.0043700  -0.0060914   0.1026148   0.1340641
           HZ12          0.0176064   0.0116103   0.0145522   0.1026982   0.0762549
                             HZ12    
           HZ12          0.1297159


 Atomic Masses
     1-  10   15.994910    1.007825   12.000000    1.007825    1.007825    1.007825   15.994910    1.007825   12.000000    1.007825
    11-  12    1.007825    1.007825

 Mass weighted Second Derivative Matrix
                             OX1         OY1         OZ1         HX2         HY2     
           OX1           0.0135476
           OY1           0.0077114   0.0212161
           OZ1           0.0103400  -0.0097015   0.0417883
           HX2          -0.0079046  -0.0036085  -0.0067387   0.0419902
           HY2           0.0015051  -0.0428805   0.0645857   0.0007175   0.1634836
           HZ2          -0.0142868   0.0536841  -0.1161912   0.0594197  -0.2217678
           CX3          -0.0118921  -0.0052430  -0.0065120  -0.0010860  -0.0011392
           CY3          -0.0064541  -0.0115427  -0.0049977   0.0041468   0.0040564
           CZ3          -0.0046946  -0.0023389  -0.0122968  -0.0089525  -0.0083732
           HX4          -0.0011035   0.0027920  -0.0080138  -0.0031944  -0.0036761
           HY4          -0.0011246   0.0036671  -0.0067584  -0.0032652  -0.0021959
           HZ4          -0.0022507   0.0017597  -0.0068749  -0.0030887  -0.0041621
           HX5           0.0023336  -0.0084578  -0.0027474   0.0009612   0.0003306
           HY5          -0.0016544  -0.0051283  -0.0037720  -0.0001713  -0.0001978
           HZ5          -0.0002633  -0.0075522  -0.0020320   0.0011228  -0.0014509
           HX6          -0.0069020  -0.0032964  -0.0012696  -0.0001950  -0.0007227
           HY6          -0.0071427  -0.0007969   0.0007018   0.0013287   0.0000250
           HZ6          -0.0080378  -0.0018805   0.0028588  -0.0002325   0.0003609
           OX7           0.0002526  -0.0000012   0.0000467  -0.0013608   0.0002975
           OY7          -0.0000208   0.0001810   0.0002338   0.0003015  -0.0014455
           OZ7          -0.0000851   0.0001324  -0.0004566   0.0003040   0.0001015
           HX8          -0.0001509  -0.0000327   0.0002576   0.0011853  -0.0001484
           HY8          -0.0000515  -0.0000092  -0.0003261  -0.0000807  -0.0005075
           HZ8           0.0001980  -0.0000422  -0.0003475  -0.0022441   0.0005990
           CX9          -0.0001037   0.0000657  -0.0000778   0.0002285  -0.0003688
           CY9           0.0001021  -0.0001636   0.0001462  -0.0002022   0.0011958
           CZ9           0.0000065   0.0000401   0.0001755   0.0005283  -0.0003675
           HX10          0.0000048  -0.0001883  -0.0001981  -0.0003977   0.0009546
           HY10         -0.0001647   0.0000843   0.0001089   0.0007513  -0.0005926
           HZ10         -0.0000569   0.0000392   0.0000747   0.0003304  -0.0002480
           HX11          0.0000725  -0.0000412   0.0000870  -0.0002269   0.0003954
           HY11         -0.0000441   0.0001460   0.0000011   0.0002735  -0.0009537
           HZ11         -0.0000524  -0.0000203  -0.0002404  -0.0000934  -0.0002733
           HX12          0.0000659  -0.0000182  -0.0000166  -0.0002521   0.0001716
           HY12         -0.0000428   0.0000698  -0.0000826   0.0000091  -0.0005982
           HZ12          0.0000731   0.0000660  -0.0000785  -0.0005108  -0.0005985
                             HZ2         CX3         CY3         CZ3         HX4     
           HZ2           0.4871795
           CX3          -0.0014777   0.0500637
           CY3           0.0028269  -0.0014212   0.0517203
           CZ3          -0.0072319  -0.0013575  -0.0032763   0.0536586
           HX4          -0.0018496  -0.0174519   0.0016742  -0.0017677   0.0625156
           HY4          -0.0029429   0.0032524  -0.0388985   0.0376373  -0.0048857
           HZ4           0.0005147  -0.0040434   0.0342426  -0.0758766   0.0246000
           HX5           0.0016865  -0.0295332   0.0278512   0.0047321   0.0004386
           HY5           0.0016666   0.0264231  -0.0789200  -0.0099234   0.0086358
           HZ5           0.0013505   0.0046319  -0.0089263  -0.0199852  -0.0128682
           HX6           0.0021226  -0.0770967  -0.0029257   0.0293248   0.0046042
           HY6           0.0012673  -0.0024093  -0.0181940   0.0015017  -0.0172771
           HZ6           0.0021181   0.0308612   0.0024499  -0.0334462   0.0286111
           OX7          -0.0001100  -0.0001431  -0.0000632  -0.0000294   0.0000952
           OY7          -0.0000332  -0.0000612  -0.0001364  -0.0000439   0.0000711
           OZ7          -0.0006775   0.0001967   0.0001679   0.0001204  -0.0001243
           HX8          -0.0015534   0.0000274  -0.0000255  -0.0000064   0.0000038
           HY8           0.0016861   0.0000862   0.0001725   0.0001894  -0.0000189
           HZ8           0.0017374   0.0000414   0.0001654   0.0001279  -0.0000268
           CX9           0.0009415   0.0000787   0.0000274   0.0000280  -0.0000391
           CY9          -0.0014231  -0.0000823  -0.0000302  -0.0000432   0.0000359
           CZ9          -0.0012242  -0.0000667  -0.0000724  -0.0000859   0.0000223
           HX10          0.0001176   0.0001735   0.0000897   0.0001091  -0.0000500
           HY10          0.0002192   0.0000524  -0.0000530  -0.0000976  -0.0000517
           HZ10          0.0000839  -0.0000665  -0.0000751  -0.0001030   0.0000244
           HX11         -0.0006951  -0.0000553  -0.0000388  -0.0000472   0.0000266
           HY11          0.0005470  -0.0000001  -0.0000136  -0.0000187  -0.0000129
           HZ11          0.0011908   0.0001452   0.0000984   0.0001210  -0.0000589
           HX12         -0.0000437  -0.0000545   0.0000010   0.0000154   0.0000274
           HY12          0.0007455   0.0000533   0.0000143   0.0000315  -0.0000203
           HZ12          0.0005867  -0.0000185   0.0000144   0.0000431   0.0000119
                             HY4         HZ4         HX5         HY5         HZ5     
           HY4           0.1361072
           HZ4          -0.1284646   0.2930756
           HX5           0.0011122   0.0005786   0.1026036
           HY5          -0.0153781  -0.0016845  -0.0943561   0.3039386
           HZ5           0.0286578   0.0081385  -0.0117975   0.0487629   0.0679395
           HX6           0.0001553   0.0007939  -0.0113703   0.0013012   0.0086622
           HY6           0.0007335   0.0088036   0.0305076   0.0039352  -0.0154782
           HZ6           0.0000924  -0.0119497   0.0043560   0.0009090  -0.0003158
           OX7           0.0000365   0.0000461   0.0000275   0.0000145  -0.0000158
           OY7           0.0001152   0.0000215  -0.0000329   0.0001519   0.0001393
           OZ7          -0.0000490  -0.0001905  -0.0000648  -0.0001085  -0.0000180
           HX8          -0.0000055   0.0000659   0.0000433   0.0000461   0.0000063
           HY8          -0.0000571  -0.0001043   0.0000174  -0.0001807  -0.0001114
           HZ8          -0.0001117  -0.0000828  -0.0000002  -0.0001947  -0.0001600
           CX9           0.0000060  -0.0000565  -0.0000443   0.0000149   0.0000395
           CY9          -0.0000225   0.0001077   0.0000619  -0.0000330  -0.0000622
           CZ9          -0.0000053   0.0001074   0.0000172   0.0000678   0.0000358
           HX10         -0.0000252  -0.0000503  -0.0000769  -0.0001469  -0.0000988
           HY10         -0.0000010   0.0000594  -0.0000530   0.0000874   0.0000726
           HZ10          0.0000098   0.0000588   0.0000246   0.0000874   0.0000548
           HX11         -0.0000011   0.0000563   0.0000183   0.0000182  -0.0000087
           HY11          0.0000030  -0.0000195  -0.0000024   0.0000479   0.0000517
           HZ11         -0.0000044  -0.0000904  -0.0000400  -0.0000827  -0.0000259
           HX12          0.0000065  -0.0000255   0.0000372  -0.0000217  -0.0000258
           HY12          0.0000223  -0.0000540  -0.0000487   0.0000100   0.0000431
           HZ12          0.0000289  -0.0000662   0.0000071   0.0000036   0.0000231
                             HX6         HY6         HZ6         OX7         OY7     
           HX6           0.3000584
           HY6           0.0222205   0.0612044
           HZ6          -0.1073050  -0.0022095   0.1141777
           OX7           0.0001988   0.0000331   0.0000287   0.0176836
           OY7           0.0000793  -0.0000206  -0.0000136  -0.0191780   0.0309390
           OZ7          -0.0001134  -0.0000947   0.0000030   0.0076168  -0.0051121
           HX8          -0.0001072   0.0000448   0.0000032  -0.0433747   0.0521768
           HY8          -0.0000315  -0.0000498   0.0000276   0.0497155  -0.0629918
           HZ8           0.0000287  -0.0000461   0.0000396  -0.0485665   0.0561433
           CX9          -0.0000669  -0.0000654  -0.0000040  -0.0078884   0.0043744
           CY9           0.0000312   0.0000987  -0.0000090   0.0050156  -0.0139942
           CZ9          -0.0000051   0.0000288  -0.0000180   0.0033896  -0.0071136
           HX10         -0.0001537  -0.0000351  -0.0000103  -0.0021903   0.0039316
           HY10         -0.0001037  -0.0000644  -0.0000668   0.0052248  -0.0067715
           HZ10          0.0000496  -0.0000089  -0.0000288   0.0040390  -0.0055626
           HX11          0.0000398   0.0000395  -0.0000037  -0.0019836   0.0015983
           HY11          0.0000019  -0.0000243   0.0000048   0.0070849   0.0017619
           HZ11         -0.0000993  -0.0000332   0.0000037   0.0048320  -0.0012714
           HX12          0.0000906   0.0000336   0.0000111   0.0048470   0.0034753
           HY12         -0.0000168  -0.0000625   0.0000050  -0.0030892  -0.0060162
           HZ12          0.0000857   0.0000050   0.0000266  -0.0023781  -0.0052912
                             OZ7         HX8         HY8         HZ8         CX9     
           OZ7           0.0284881
           HX8          -0.0411156   0.1796298
           HY8           0.0444386  -0.2159952   0.2731409
           HZ8          -0.0638255   0.1737035  -0.1967405   0.2375764
           CX9           0.0014420  -0.0023356   0.0052630   0.0051523   0.0528339
           CY9          -0.0041569   0.0026365  -0.0060908  -0.0064400   0.0009524
           CZ9          -0.0126720  -0.0033402   0.0064628   0.0051126   0.0027729
           HX10         -0.0018776  -0.0001165   0.0018056   0.0026404  -0.0343447
           HY10          0.0038566   0.0012893  -0.0035640  -0.0046417   0.0219110
           HZ10          0.0047548   0.0027434  -0.0050431  -0.0021068  -0.0263324
           HX11          0.0038138  -0.0007402  -0.0007383   0.0008966  -0.0517490
           HY11         -0.0080832  -0.0002592   0.0019546  -0.0001544  -0.0212512
           HZ11         -0.0046355  -0.0007697   0.0003050   0.0001473   0.0316667
           HX12          0.0035186   0.0014639  -0.0012680  -0.0002287  -0.0623916
           HY12         -0.0064587  -0.0017134   0.0006693  -0.0005545  -0.0265793
           HZ12         -0.0037721   0.0001191   0.0012907   0.0004185  -0.0265064
                             CY9         CZ9         HX10        HY10        HZ10    
           CY9           0.0504216
           CZ9          -0.0044543   0.0531768
           HX10          0.0222955  -0.0235675   0.1238649
           HY10         -0.0474292   0.0315377  -0.0953034   0.1868429
           HZ10          0.0357721  -0.0534341   0.0891114  -0.1186072   0.1892753
           HX11         -0.0203060   0.0318015   0.0144273   0.0054301  -0.0107547
           HY11         -0.0305441   0.0216421  -0.0160219  -0.0067185   0.0127753
           HZ11          0.0197445  -0.0492200   0.0158788   0.0099499  -0.0128823
           HX12         -0.0279431  -0.0283242  -0.0108787  -0.0079052  -0.0063003
           HY12         -0.0346552  -0.0155668   0.0166168   0.0144941   0.0098617
           HZ12         -0.0161927  -0.0347727  -0.0183733  -0.0112713  -0.0089577
                             HX11        HY11        HZ11        HX12        HY12    
           HX11          0.1889214
           HY11          0.0714915   0.1078696
           HZ11         -0.1320726  -0.0671420   0.1860652
           HX12         -0.0160958  -0.0101893  -0.0115567   0.2215136
           HY12         -0.0126362  -0.0043361  -0.0060441   0.1018181   0.1330232
           HZ12          0.0174697   0.0115201   0.0144392   0.1019008   0.0756629
                             HZ12    
           HZ12          0.1287087


 Mass Weighted 2nd Derivative Matrix Eigenvalues
     1-  10    0.000000    0.000000    0.000000    0.000000    0.000000    0.000000    0.000050    0.000073    0.000123    0.000341
    11-  20    0.000636    0.001265    0.004567    0.016481    0.050657    0.051568    0.053614    0.054362    0.061885    0.061985
    21-  30    0.083377    0.089558    0.098419    0.098653    0.098999    0.099538    0.100583    0.100896    0.371038    0.377586
    31-  36    0.380302    0.390577    0.396831    0.406098    0.642322    0.663858

 Mass Weighted 2nd Derivative Matrix Eigenvectors
              1             2             3             4             5             6             7             8
    1    0.00000000    0.71004410    0.00000000    0.00000000    0.00000000    0.00000000   -0.15965269    0.37475558
    2    0.39422133   -0.16062711    0.03512739    0.17318356   -0.04334726    0.52506064    0.03019503   -0.10800784
    3    0.41185599    0.06277556   -0.07271091    0.15080520   -0.11187085   -0.25723225   -0.07316129   -0.33598731
    4    0.01195483    0.11066787    0.06446467    0.01325326    0.01443962    0.01246735   -0.13781677    0.03598491
    5    0.06131516   -0.04725730    0.02863511    0.06962326   -0.03368221    0.11666041    0.03926620    0.07993318
    6    0.08280865    0.01846888   -0.01401501    0.05013898   -0.04121516   -0.07355772    0.00739144   -0.02351873
    7    0.12991079    0.48685419    0.30360093   -0.04196320   -0.32890436    0.12043955    0.20591496   -0.19034623
    8    0.35104723    0.12701595   -0.39197837    0.06076284    0.23108769    0.39432841   -0.08252937    0.02351962
    9    0.20934689   -0.04963980   -0.00488078    0.25619021    0.01117971   -0.29668888   -0.33082424    0.15504593
   10    0.02279604    0.22034552    0.01096437   -0.02718832   -0.10949976    0.01953083    0.18405025    0.05051559
   11    0.14426481    0.04486476   -0.13633039   -0.01200708    0.09294859    0.13132941   -0.06674451   -0.14149787
   12    0.08545925   -0.01753384   -0.00654595    0.05940653    0.01887076   -0.07514178   -0.13135588   -0.04677337
   13    0.08204638    0.05868617    0.21702626   -0.01465500   -0.17677588    0.07702283    0.07882992   -0.26119878
   14    0.12757017    0.00334755   -0.06685753    0.01159900    0.04462099    0.13396661   -0.03554989   -0.10555033
   15    0.01440401   -0.00130827    0.00654329    0.09974464   -0.03772757   -0.10565655   -0.00246418    0.22196528
   16    0.03805378    0.11802765    0.10377491   -0.00533689   -0.07817578    0.03584190    0.00293979   -0.07400355
   17    0.03790149    0.12540841   -0.23842604    0.03060822    0.12807639    0.06418964    0.00211696    0.28627756
   18    0.04858710   -0.04901155    0.00921530    0.09248066    0.05484550   -0.09404503   -0.21988743    0.05967609
   19    0.09752886   -0.04410500    0.65882805    0.17040212    0.28048597    0.10674667   -0.32964279    0.09230205
   20   -0.17399789   -0.07932729    0.04062608    0.50985427   -0.20262107    0.25128107    0.04775765    0.28600159
   21    0.19648747    0.03100233   -0.01483923    0.29770598   -0.15083423   -0.35594851    0.01029047   -0.13395179
   22    0.04565760   -0.08257822    0.24801566    0.05146642    0.05736750    0.04768371    0.09654579    0.10013510
   23   -0.04883466   -0.06395211    0.08093541    0.14502483   -0.09682188    0.07148331    0.05940153    0.07424394
   24    0.02407324    0.02499347   -0.00164688    0.08557922   -0.07671941   -0.09931145   -0.10986087   -0.10162951
   25   -0.08893275    0.18456584    0.13153959    0.18774523    0.64053723   -0.06958911    0.21235300   -0.22613645
   26   -0.36323565    0.09618078   -0.17505483    0.52553100   -0.10138066    0.08253560   -0.00262619   -0.20458685
   27    0.33057929   -0.03758893   -0.03614555    0.17527434    0.04266832   -0.24156954    0.40521027    0.26278807
   28   -0.04978412    0.13782566   -0.05771559    0.04355273    0.19780206   -0.04393292   -0.17700554   -0.17286684
   29   -0.09367160    0.07235467   -0.12368211    0.13101768    0.01973906    0.01828112   -0.05857698   -0.05806027
   30    0.12547670   -0.02827732   -0.01355674    0.03717718    0.05337567   -0.05807971    0.23565529    0.15664782
   31   -0.01502667   -0.00540953    0.09486493    0.06575869    0.19713648   -0.00900573    0.28866544    0.00608590
   32   -0.17124206    0.09234905   -0.13697457    0.17419961    0.00683929   -0.02125797   -0.03049554   -0.20476859
   33    0.07145962   -0.03609144    0.00092335    0.07397453    0.04334930   -0.08282704    0.33132852    0.07095027
   34   -0.05307135    0.08328930   -0.02755626    0.06234573    0.25244102   -0.04554657    0.16976321   -0.10819347
   35   -0.09814521   -0.04135163    0.05687237    0.16938568   -0.09518986    0.04394279    0.07387387   -0.01487488
   36    0.12843617    0.01616085   -0.02424352    0.02176781   -0.01815550   -0.05333911   -0.11702013    0.09303961
              9            10            11            12            13            14            15            16
    1   -0.10490867    0.10300841   -0.24432723   -0.07883958    0.03779979   -0.12677480    0.01470031    0.01173934
    2    0.17485381    0.31300387    0.12828059   -0.36313719    0.00604173    0.06743629    0.00872236    0.01688413
    3   -0.16282063    0.04053958    0.21412833    0.52987650   -0.03101103    0.06413844    0.01166407    0.01541808
    4    0.00915929    0.08984494   -0.09316121   -0.11749880   -0.08055062    0.75315514   -0.01716436    0.04779568
    5    0.08654702    0.14754387    0.03875376   -0.13047940    0.05970730   -0.50465685    0.02980482   -0.00330709
    6   -0.02231115    0.03930539    0.06008719    0.12127781    0.03139670   -0.32836999    0.01590905   -0.00526268
    7    0.09589206    0.06097918    0.05857900    0.04230519   -0.00280904   -0.00742460   -0.01433233   -0.02181826
    8   -0.22157763   -0.19155304   -0.02486695    0.04748201   -0.00769907   -0.00094772   -0.01842371   -0.02214200
    9   -0.00237701    0.47924672    0.02276761    0.04079044    0.01262820   -0.00598894   -0.00902478   -0.00887791
   10   -0.02823537   -0.08637649    0.43373558    0.05111052   -0.03043192    0.06712575    0.00499407    0.01362477
   11   -0.11139671   -0.15131161   -0.27132213    0.12776803    0.00522511   -0.03037352    0.00984464    0.00909315
   12   -0.02131609    0.09616392   -0.17826659    0.07012543    0.01066064   -0.02448071    0.00541890    0.00480362
   13    0.11304397    0.07256952   -0.15991261    0.01311415    0.00827591   -0.00439149   -0.00540058   -0.00438902
   14   -0.03986172   -0.04861622   -0.15604012    0.03472591    0.00449387   -0.00953930   -0.00309380   -0.00277380
   15    0.03601972    0.20793776    0.42540484   -0.09860568   -0.01196829    0.04560119   -0.01142268   -0.01608617
   16    0.04113739    0.05648120   -0.14030327   -0.00827293    0.01166604   -0.02474897   -0.00681741   -0.01186341
   17   -0.13269737   -0.08384685    0.35920386   -0.03621393   -0.01905264    0.02724916    0.00033909   -0.00265908
   18    0.01531880    0.22064818   -0.27562794   -0.04279854    0.02727629   -0.04863860   -0.00873835   -0.01698414
   19   -0.08551485   -0.33350586    0.12681073    0.03981964   -0.22075674   -0.07673087   -0.13077361   -0.23397630
   20    0.18576976   -0.12018435   -0.10510767    0.36279992   -0.15294367    0.03431879    0.26093190    0.43458498
   21   -0.15035628   -0.37034567   -0.03060733   -0.52542761    0.03675320   -0.04443966    0.20136097    0.31102774
   22   -0.27665447   -0.01682545    0.00483023    0.05431345    0.70795080    0.07553246   -0.13928760    0.05769800
   23   -0.19237136   -0.01621789   -0.02165189    0.05171833    0.47249377    0.09712789    0.31660548   -0.14442670
   24   -0.06731060   -0.13878116    0.02211963   -0.21640357   -0.12897927    0.00071567    0.42307665   -0.32213817
   25    0.11791116    0.11738104    0.05280122    0.00497665    0.01297705   -0.01531350    0.11599996    0.24881028
   26   -0.05734804    0.00563128    0.00498335   -0.02922302    0.01161368    0.01141726   -0.28787790   -0.42409500
   27    0.28244142   -0.18497453   -0.19012017   -0.02130155    0.00207318    0.05881961   -0.40332688   -0.12951352
   28    0.34615471   -0.09414056    0.10667568   -0.02575548    0.22352041   -0.00419233   -0.07151513    0.15450862
   29    0.25479673   -0.04127185    0.02401751    0.05492991    0.14208944    0.02648102    0.18414971   -0.32096763
   30    0.12616698   -0.00190033   -0.10021866    0.07931004   -0.02277042    0.04500647    0.23281622   -0.30637962
   31   -0.21982302    0.16442156   -0.06451392    0.02468618   -0.16098836    0.01359379    0.19170297   -0.09380551
   32   -0.01764889    0.02532934    0.03841722   -0.11032880    0.06923917   -0.02062315   -0.24520398    0.08683654
   33   -0.17565908    0.09055009   -0.11648761   -0.03775458   -0.13226539    0.02446154   -0.03257385   -0.08354156
   34    0.03607290    0.11682804   -0.00351900    0.00059884    0.01433699    0.01311377    0.15508461   -0.06148475
   35   -0.32155403    0.04178208   -0.03508373   -0.05378139   -0.16247480   -0.02716432   -0.30976388    0.11943620
   36    0.39032998   -0.21546353    0.00934818    0.03987670    0.15304505    0.02492931   -0.05026475   -0.07737129
             17            18            19            20            21            22            23            24
    1    0.42367214   -0.03187134    0.01773478    0.16685334   -0.00151971   -0.11505604   -0.00319980   -0.01313477
    2    0.35093682    0.01370189   -0.01389558   -0.11804203   -0.01345116   -0.24574411    0.00200778    0.00539522
    3    0.40537294   -0.08670313   -0.00622524   -0.08167088    0.00629114    0.11530679    0.01288990   -0.02450872
    4    0.03298827    0.32241749    0.00031753    0.00210375   -0.00762323    0.48164621    0.01056891   -0.03527957
    5    0.00619081    0.40789795   -0.00105097    0.00828354    0.02847423    0.53591495   -0.00310198   -0.02864819
    6    0.07309049    0.15079687   -0.00051945    0.00281534    0.01398335    0.28028271   -0.00283984   -0.02530042
    7   -0.41301113   -0.07032033   -0.03418515   -0.32581763    0.00073119    0.02617680    0.00438534   -0.21172046
    8   -0.33491857   -0.23429938    0.02517752    0.21957045    0.00647484    0.21921954    0.02706922   -0.10980828
    9   -0.40195711    0.17789641    0.01340015    0.15247182   -0.01160708   -0.26889728    0.05188168   -0.24474405
   10   -0.11071142    0.36527499    0.01756944    0.19476518   -0.01052557   -0.17313744    0.01362125    0.44039701
   11   -0.09274212    0.37396306   -0.01635092   -0.12560218    0.00018448   -0.13827019   -0.13354876    0.41397192
   12   -0.10985211    0.25673273   -0.01171986   -0.08742567   -0.00302717   -0.17566426   -0.06799335    0.14816942
   13   -0.09288149   -0.12009372    0.05268465    0.48890784    0.00591533   -0.05205583   -0.02161421    0.18533852
   14   -0.08170680   -0.02544927    0.02647307    0.24849628    0.00131515   -0.01915814    0.02465660   -0.01674000
   15   -0.08228753   -0.34470077    0.02759892    0.23190117    0.01675355    0.22806502   -0.14239711    0.36058597
   16   -0.09605176   -0.18565336   -0.02215240   -0.22700126    0.00530531    0.12665087   -0.00419425    0.18812856
   17   -0.08723980    0.02277695   -0.04419958   -0.41676922    0.00099378   -0.13111746    0.00396749   -0.01986430
   18   -0.08756389   -0.30981292   -0.03397926   -0.34883537    0.00792757    0.15247258   -0.00602576    0.46739955
   19    0.01484073    0.00736594    0.18202913   -0.01827429   -0.05876947   -0.00428994    0.02682118    0.00011793
   20   -0.02132280   -0.03058054    0.11085358   -0.01300871    0.01060684   -0.00737577   -0.03343349   -0.00833914
   21   -0.02498735   -0.02250937   -0.03586420    0.00370910   -0.31744640    0.00718830   -0.00251594   -0.00350131
   22   -0.00080890    0.00285010    0.00704554   -0.00120519   -0.17361537    0.00761654    0.01676151    0.00034803
   23   -0.00474814    0.00158260    0.00054103    0.00052686    0.40542991   -0.01097205   -0.03198847   -0.00874797
   24   -0.00103658    0.00475715   -0.00402713    0.00211968    0.52551463   -0.01588898   -0.03349838   -0.00819021
   25   -0.01424510   -0.01075650   -0.34858734    0.03572426    0.16129532    0.00382057    0.17424700   -0.00977840
   26    0.02622642    0.02084068   -0.21737449    0.02391912   -0.17040443    0.00789427   -0.25727614   -0.06852761
   27    0.01868189    0.01396269    0.06312353   -0.00765931    0.30084542   -0.01731946   -0.14381391   -0.03040238
   28   -0.00210811   -0.00426498    0.21762704   -0.02367388    0.13598157   -0.02489285   -0.22820158    0.09915657
   29    0.00659847    0.00634141    0.11011441   -0.00931126   -0.27095556   -0.00404419    0.28094612    0.13090052
   30    0.00378172    0.00460447   -0.04257847    0.00649323   -0.19729400    0.00713769    0.50742650    0.06612906
   31    0.00012176   -0.00414938   -0.07481407    0.00922956   -0.20967017    0.00339987   -0.23578122    0.04447100
   32    0.00019182    0.01537473    0.49455500   -0.05351001    0.14975808    0.01496583    0.47018115    0.01680652
   33    0.00564645    0.00697483    0.34826227   -0.03626343   -0.06223305    0.00404835   -0.01853576    0.05667054
   34   -0.00319717    0.00100959    0.32670654   -0.03403219   -0.06468049    0.00271425   -0.26165705   -0.10639354
   35    0.00551851    0.00132034   -0.29314389    0.02977514    0.26179105   -0.02262300    0.30844014    0.13942021
   36    0.00537850    0.00369493   -0.37941549    0.04008578   -0.06009598    0.01917736    0.03975971   -0.00444957
             25            26            27            28            29            30            31            32
    1   -0.02324622   -0.00242258   -0.00659387   -0.03505475   -0.00545361    0.00020635    0.00140987    0.00026028
    2    0.01969485   -0.01675581   -0.01539289   -0.07142088   -0.00547170   -0.00084332   -0.00125464    0.00034218
    3    0.01213672    0.00889280    0.00922301    0.03455745   -0.00367327    0.00160921   -0.00058877   -0.00001365
    4   -0.00819358    0.02981709    0.00489509    0.09315652   -0.00455106   -0.00133666    0.00027240   -0.00087640
    5    0.00710212    0.03456354    0.01919667    0.10058631    0.00224134    0.00267211   -0.00010667   -0.00159736
    6    0.00575335    0.01966496    0.01045994    0.05714188   -0.01121542   -0.00440983   -0.00094072   -0.00021706
    7   -0.12378732    0.05453744   -0.03212734   -0.12569718   -0.09435458    0.00253622   -0.24387519   -0.00259736
    8    0.12294254    0.01204459   -0.03862249   -0.16303447   -0.14829070    0.00330760    0.15744108    0.00080855
    9    0.09683018    0.04296108    0.01157743   -0.01840585   -0.01789180   -0.00152790    0.10879778   -0.00078905
   10    0.50378086   -0.15464490   -0.00936928   -0.07287754    0.01962450    0.00010036   -0.01724401    0.00060226
   11   -0.40144622   -0.07716045   -0.05865828   -0.12243983   -0.13442813   -0.00131989    0.00424754   -0.00317695
   12   -0.26531860   -0.02194867   -0.02767244   -0.06125215    0.23355027    0.00190138    0.02291086    0.00607025
   13   -0.13181718    0.00141972    0.14304940    0.56901111   -0.25688368    0.00354961    0.22889212    0.00034867
   14    0.07047501    0.01341894    0.06847640    0.24061358    0.62856611   -0.00896761   -0.60180660   -0.00057402
   15   -0.48460182   -0.05347409   -0.08313578   -0.18876093    0.12333656   -0.00189249   -0.10132086    0.00000454
   16    0.15347481   -0.05387912   -0.00418214   -0.01268981    0.58838230   -0.01220520    0.62328110    0.00766008
   17   -0.17433218    0.05677831    0.16539486    0.63190647    0.03527502   -0.00091302    0.05972934    0.00072933
   18    0.35901459   -0.12887612    0.03301428    0.12506520   -0.26745086    0.00549813   -0.29343495   -0.00331724
   19   -0.00590248   -0.02730118   -0.00989893    0.00342764    0.00052069    0.00281810    0.00031213    0.00200657
   20    0.00278300   -0.02046561    0.00630414   -0.00151257    0.00029521   -0.00534790   -0.00017037    0.00132237
   21    0.00035698   -0.00246724   -0.07160605    0.01853657   -0.00049179   -0.00311039   -0.00021391    0.00016860
   22   -0.00471216   -0.00916362   -0.02418907    0.00809654   -0.00018418    0.00346674   -0.00008066    0.00000727
   23    0.00778261   -0.00424555    0.05667830   -0.01589627   -0.00050878   -0.00462197    0.00014226    0.00030452
   24    0.01073362    0.00343484    0.06509029   -0.01998518   -0.00088430   -0.00168096    0.00074589   -0.00079655
   25   -0.03890533   -0.14230976    0.00892671   -0.00262475    0.00193037    0.02812349    0.00229670   -0.26440691
   26    0.02961357   -0.13582609   -0.00936830    0.02606360    0.00067521   -0.06916656    0.00057998   -0.16449014
   27    0.03170893   -0.01317086   -0.18182241    0.05461211   -0.00294976   -0.15384460    0.00019635    0.03065736
   28    0.08410163    0.56456609   -0.00475272   -0.02693757   -0.00172308   -0.14069476   -0.00215863   -0.02069627
   29   -0.01041410    0.38387934   -0.16304365    0.00772786    0.00178987    0.19151790    0.00255603   -0.00768505
   30   -0.07920274   -0.02518415   -0.18583453    0.02949616   -0.00122232   -0.19468238   -0.00311919   -0.00122019
   31    0.04762898    0.29072667    0.31901980   -0.09207051   -0.01049743   -0.44942907   -0.00383777    0.43226854
   32   -0.10737733   -0.24742331    0.28867376   -0.08337098   -0.00580641   -0.24852271   -0.00236860    0.24604079
   33   -0.00049383    0.19129951    0.45605289   -0.13290247    0.00976492    0.42976854    0.00391220   -0.43975447
   34    0.03325118   -0.24755864   -0.27871017    0.10309877    0.00440593    0.47870488   -0.00238731    0.49298737
   35   -0.00775158    0.41559600   -0.17491191    0.00406106    0.00285914    0.32207456   -0.00198808    0.32413163
   36   -0.03919761   -0.11330946    0.56799936   -0.14525321    0.00263042    0.30761062   -0.00165359    0.33554899
             33            34            35            36
    1   -0.00095093    0.00017636   -0.02408780   -0.00103592
    2   -0.00417239   -0.00023787    0.10701044    0.00430988
    3    0.00403642   -0.00074243   -0.21675300   -0.00903233
    4    0.00366712   -0.00146237    0.08670332    0.00411615
    5    0.01053297    0.00147290   -0.43728695   -0.01793908
    6   -0.00730466    0.00185124    0.86032433    0.03566060
    7    0.00807662   -0.00067564   -0.00033738    0.00003067
    8    0.17479738    0.00045189    0.00195381    0.00019893
    9   -0.24218852    0.00148803   -0.00326462    0.00002288
   10    0.06839332   -0.00026654    0.00376247    0.00010654
   11   -0.45301712    0.00182215   -0.00373106   -0.00005438
   12    0.80144381   -0.00330777    0.01331276    0.00025074
   13    0.06733216    0.00119070    0.00098043    0.00006155
   14   -0.14485316   -0.00324373    0.00541119   -0.00000584
   15   -0.04052354   -0.00071608    0.00314178    0.00009010
   16   -0.16315391    0.00175762    0.00630035    0.00029195
   17    0.00097260    0.00020818    0.00220292    0.00002907
   18    0.06654646   -0.00067569    0.00075036    0.00002117
   19    0.00003366    0.00227066   -0.00612583    0.12902456
   20   -0.00034283   -0.00253808    0.00771961   -0.15697974
   21   -0.00016721    0.00489368   -0.00661826    0.13368087
   22   -0.00005132   -0.00315197    0.01984823   -0.51076910
   23    0.00016361    0.00245831   -0.02337937    0.61521098
   24   -0.00030112   -0.01197113    0.02547879   -0.54735429
   25    0.00054193   -0.12525362    0.00198926    0.00123969
   26    0.00229039    0.15795519   -0.00343058   -0.00014440
   27    0.00034234   -0.22688175   -0.00209459    0.00544155
   28    0.00261309    0.41898390   -0.00099775   -0.00523936
   29   -0.00318042   -0.57029769    0.00145847    0.00718770
   30    0.00348300    0.57421893   -0.00023825   -0.00615527
   31    0.00043659   -0.13810098   -0.00285339   -0.00104478
   32   -0.00000605   -0.07164177    0.00090828    0.00165822
   33   -0.00041814    0.11748889    0.00345868    0.00132892
   34   -0.00532223    0.14583615    0.00092155   -0.00178862
   35   -0.00368858    0.10367671    0.00244988    0.00193246
   36   -0.00381896    0.08432358    0.00213229    0.00072652

   Low Vibration      Wavenumber
        Nr             [1/cm] 
        1                0.00
        2                0.00
        3                0.00
        4                0.00
        5                0.00
        6                0.00
        7               36.49
        8               43.90

     Vibration        Wavenumber
        Nr             [1/cm] 
        1               56.90
        2               94.92
        3              129.60
        4              182.81
        5              347.40
        6              659.93
        7             1156.97
        8             1167.33
        9             1190.27
       10             1198.54
       11             1278.78
       12             1279.81
       13             1484.32
       14             1538.36
       15             1612.67
       16             1614.58
       17             1617.41
       18             1621.80
       19             1630.30
       20             1632.83
       21             3131.22
       22             3158.73
       23             3170.07
       24             3212.61
       25             3238.23
       26             3275.82
       27             4119.84
       28             4188.34

 FREQUENCIES * CALCULATION OF NORMAL MODES FOR HF-SCF


 Atomic Coordinates

  Nr  Atom  Charge       X              Y              Z

   1   O     8.00    0.855253059    0.897125364   -2.586677961
   2   H     1.00    1.002404517    0.080956975   -1.007957100
   3   C     6.00   -0.780790174   -0.489521253   -4.118921758
   4   H     1.00   -0.951654795    0.492882307   -5.906731569
   5   H     1.00   -0.071006927   -2.384934956   -4.496240336
   6   H     1.00   -2.660117312   -0.657188250   -3.296142385
   7   O     8.00    0.422375216   -1.117559749    2.532755238
   8   H     1.00    1.356528739   -2.238628634    3.545291188
   9   C     6.00   -0.591240728    0.834341940    4.023245107
  10   H     1.00   -1.534760830    2.127447600    2.754508205
  11   H     1.00   -1.958874202    0.113064809    5.374336989
  12   H     1.00    0.877135561    1.859131935    5.027933059

 Gradient norm at reference geometry: 0.36866D-03

 Normal Modes

                              1 A         2 A         3 A         4 A         5 A  
 Wavenumbers [cm-1]           56.90       94.92      129.60      182.81      347.40
 Intensities [km/mol]          0.00        0.00        0.00        0.00        0.00
 Intensities [relative]        0.00        0.00        0.00        0.00        0.00
           OX1             -0.02623     0.02576    -0.06109    -0.01971     0.00945
           OY1              0.04372     0.07826     0.03208    -0.09080     0.00151
           OZ1             -0.04071     0.01014     0.05354     0.13249    -0.00775
           HX2              0.00912     0.08950    -0.09280    -0.11704    -0.08024
           HY2              0.08621     0.14697     0.03860    -0.12997     0.05948
           HZ2             -0.02222     0.03915     0.05985     0.12081     0.03127
           CX3              0.02768     0.01760     0.01691     0.01221    -0.00081
           CY3             -0.06396    -0.05530    -0.00718     0.01371    -0.00222
           CZ3             -0.00069     0.13835     0.00657     0.01178     0.00365
           HX4             -0.02813    -0.08604     0.43205     0.05091    -0.03031
           HY4             -0.11096    -0.15072    -0.27027     0.12727     0.00520
           HZ4             -0.02123     0.09579    -0.17757     0.06985     0.01062
           HX5              0.11260     0.07229    -0.15929     0.01306     0.00824
           HY5             -0.03971    -0.04843    -0.15543     0.03459     0.00448
           HZ5              0.03588     0.20713     0.42375    -0.09822    -0.01192
           HX6              0.04098     0.05626    -0.13976    -0.00824     0.01162
           HY6             -0.13218    -0.08352     0.35781    -0.03607    -0.01898
           HZ6              0.01526     0.21979    -0.27456    -0.04263     0.02717
           OX7             -0.02138    -0.08339     0.03171     0.00996    -0.05520
           OY7              0.04645    -0.03005    -0.02628     0.09071    -0.03824
           OZ7             -0.03760    -0.09260    -0.00765    -0.13138     0.00919
           HX8             -0.27558    -0.01676     0.00481     0.05410     0.70520
           HY8             -0.19162    -0.01615    -0.02157     0.05152     0.47066
           HZ8             -0.06705    -0.13824     0.02203    -0.21556    -0.12848
           CX9              0.03404     0.03388     0.01524     0.00144     0.00375
           CY9             -0.01655     0.00163     0.00144    -0.00844     0.00335
           CZ9              0.08153    -0.05340    -0.05488    -0.00615     0.00060
           HX10             0.34481    -0.09377     0.10626    -0.02566     0.22265
           HY10             0.25381    -0.04111     0.02392     0.05472     0.14154
           HZ10             0.12568    -0.00189    -0.09983     0.07900    -0.02268
           HX11            -0.21897     0.16378    -0.06426     0.02459    -0.16036
           HY11            -0.01758     0.02523     0.03827    -0.10990     0.06897
           HZ11            -0.17498     0.09020    -0.11603    -0.03761    -0.13175
           HX12             0.03593     0.11637    -0.00351     0.00060     0.01428
           HY12            -0.32030     0.04162    -0.03495    -0.05357    -0.16184
           HZ12             0.38881    -0.21463     0.00931     0.03972     0.15245

                              6 A         7 A         8 A         9 A        10 A  
 Wavenumbers [cm-1]          659.93     1156.97     1167.33     1190.27     1198.54
 Intensities [km/mol]          0.00        0.00        0.00        0.00        0.00
 Intensities [relative]        0.00        0.00        0.00        0.00        0.00
           OX1             -0.03170     0.00368     0.00294     0.10593    -0.00797
           OY1              0.01686     0.00218     0.00422     0.08775     0.00343
           OZ1              0.01604     0.00292     0.00386     0.10136    -0.02168
           HX2              0.75023    -0.01710     0.04761     0.03286     0.32116
           HY2             -0.50269     0.02969    -0.00329     0.00617     0.40631
           HZ2             -0.32709     0.01585    -0.00524     0.07281     0.15021
           CX3             -0.00214    -0.00414    -0.00630    -0.11923    -0.02030
           CY3             -0.00027    -0.00532    -0.00639    -0.09668    -0.06764
           CZ3             -0.00173    -0.00261    -0.00256    -0.11604     0.05135
           HX4              0.06686     0.00497     0.01357    -0.11028     0.36385
           HY4             -0.03026     0.00981     0.00906    -0.09238     0.37251
           HZ4             -0.02439     0.00540     0.00478    -0.10942     0.25573
           HX5             -0.00437    -0.00538    -0.00437    -0.09252    -0.11963
           HY5             -0.00950    -0.00308    -0.00276    -0.08139    -0.02535
           HZ5              0.04542    -0.01138    -0.01602    -0.08197    -0.34336
           HX6             -0.02465    -0.00679    -0.01182    -0.09568    -0.18493
           HY6              0.02714     0.00034    -0.00265    -0.08690     0.02269
           HZ6             -0.04845    -0.00870    -0.01692    -0.08722    -0.30861
           OX7             -0.01919    -0.03270    -0.05850     0.00371     0.00184
           OY7              0.00858     0.06524     0.10866    -0.00533    -0.00765
           OZ7             -0.01111     0.05035     0.07777    -0.00625    -0.00563
           HX8              0.07524    -0.13875     0.05747    -0.00081     0.00284
           HY8              0.09675     0.31537    -0.14386    -0.00473     0.00158
           HZ8              0.00071     0.42143    -0.32089    -0.00103     0.00474
           CX9             -0.00442     0.03349     0.07183    -0.00411    -0.00311
           CY9              0.00330    -0.08310    -0.12243     0.00757     0.00602
           CZ9              0.01698    -0.11643    -0.03739     0.00539     0.00403
           HX10            -0.00418    -0.07124     0.15391    -0.00210    -0.00425
           HY10             0.02638     0.18343    -0.31972     0.00657     0.00632
           HZ10             0.04483     0.23191    -0.30519     0.00377     0.00459
           HX11             0.01354     0.19096    -0.09344     0.00012    -0.00413
           HY11            -0.02054    -0.24425     0.08650     0.00019     0.01531
           HZ11             0.02437    -0.03245    -0.08322     0.00562     0.00695
           HX12             0.01306     0.15448    -0.06125    -0.00318     0.00101
           HY12            -0.02706    -0.30856     0.11897     0.00550     0.00132
           HZ12             0.02483    -0.05007    -0.07707     0.00536     0.00368

                             11 A        12 A        13 A        14 A        15 A  
 Wavenumbers [cm-1]         1278.78     1279.81     1484.32     1538.36     1612.67
 Intensities [km/mol]          0.00        0.00        0.00        0.00        0.00
 Intensities [relative]        0.00        0.00        0.00        0.00        0.00
           OX1              0.00443     0.04172    -0.00038    -0.02877    -0.00080
           OY1             -0.00347    -0.02952    -0.00336    -0.06145     0.00050
           OZ1             -0.00156    -0.02042     0.00157     0.02883     0.00322
           HX2              0.00032     0.00210    -0.00759     0.47977     0.01053
           HY2             -0.00105     0.00825     0.02836     0.53383    -0.00309
           HZ2             -0.00052     0.00280     0.01393     0.27919    -0.00283
           CX3             -0.00987    -0.09406     0.00021     0.00756     0.00127
           CY3              0.00727     0.06338     0.00187     0.06328     0.00781
           CZ3              0.00387     0.04401    -0.00335    -0.07762     0.01498
           HX4              0.01750     0.19401    -0.01048    -0.17246     0.01357
           HY4             -0.01629    -0.12511     0.00018    -0.13773    -0.13303
           HZ4             -0.01167    -0.08709    -0.00302    -0.17498    -0.06773
           HX5              0.05248     0.48701     0.00589    -0.05185    -0.02153
           HY5              0.02637     0.24753     0.00131    -0.01908     0.02456
           HZ5              0.02749     0.23100     0.01669     0.22718    -0.14184
           HX6             -0.02207    -0.22612     0.00528     0.12616    -0.00418
           HY6             -0.04403    -0.41515     0.00099    -0.13061     0.00395
           HZ6             -0.03385    -0.34748     0.00790     0.15188    -0.00600
           OX7              0.04551    -0.00457    -0.01469    -0.00107     0.00671
           OY7              0.02772    -0.00325     0.00265    -0.00184    -0.00836
           OZ7             -0.00897     0.00093    -0.07937     0.00180    -0.00063
           HX8              0.00702    -0.00120    -0.17294     0.00759     0.01670
           HY8              0.00054     0.00052     0.40385    -0.01093    -0.03186
           HZ8             -0.00401     0.00211     0.52347    -0.01583    -0.03337
           CX9             -0.10063     0.01031     0.04656     0.00110     0.05030
           CY9             -0.06275     0.00690    -0.04919     0.00228    -0.07427
           CZ9              0.01822    -0.00221     0.08685    -0.00500    -0.04152
           HX10             0.21678    -0.02358     0.13545    -0.02480    -0.22731
           HY10             0.10969    -0.00928    -0.26990    -0.00403     0.27985
           HZ10            -0.04241     0.00647    -0.19653     0.00711     0.50545
           HX11            -0.07452     0.00919    -0.20885     0.00339    -0.23486
           HY11             0.49263    -0.05330     0.14918     0.01491     0.46835
           HZ11             0.34691    -0.03612    -0.06199     0.00403    -0.01846
           HX12             0.32544    -0.03390    -0.06443     0.00270    -0.26064
           HY12            -0.29200     0.02966     0.26077    -0.02254     0.30724
           HZ12            -0.37794     0.03993    -0.05986     0.01910     0.03961

                             16 A        17 A        18 A        19 A        20 A  
 Wavenumbers [cm-1]         1614.58     1617.41     1621.80     1630.30     1632.83
 Intensities [km/mol]          0.00        0.00        0.00        0.00        0.00
 Intensities [relative]        0.00        0.00        0.00        0.00        0.00
           OX1             -0.00328    -0.00581    -0.00061    -0.00165    -0.00877
           OY1              0.00135     0.00492    -0.00419    -0.00385    -0.01786
           OZ1             -0.00613     0.00303     0.00222     0.00231     0.00864
           HX2             -0.03514    -0.00816     0.02970     0.00488     0.09279
           HY2             -0.02854     0.00707     0.03443     0.01912     0.10020
           HZ2             -0.02520     0.00573     0.01959     0.01042     0.05692
           CX3             -0.06112    -0.03573     0.01574    -0.00927    -0.03629
           CY3             -0.03170     0.03549     0.00348    -0.01115    -0.04706
           CZ3             -0.07065     0.02795     0.01240     0.00334    -0.00531
           HX4              0.43868     0.50182    -0.15404    -0.00933    -0.07259
           HY4              0.41236    -0.39988    -0.07686    -0.05843    -0.12196
           HZ4              0.14759    -0.26429    -0.02186    -0.02756    -0.06101
           HX5              0.18462    -0.13130     0.00141     0.14249     0.56680
           HY5             -0.01667     0.07020     0.01337     0.06821     0.23968
           HZ5              0.35918    -0.48272    -0.05327    -0.08281    -0.18803
           HX6              0.18740     0.15288    -0.05367    -0.00417    -0.01264
           HY6             -0.01979    -0.17365     0.05656     0.16475     0.62945
           HZ6              0.46558     0.35762    -0.12837     0.03289     0.12458
           OX7              0.00003    -0.00148    -0.00683    -0.00248     0.00086
           OY7             -0.00209     0.00070    -0.00512     0.00158    -0.00038
           OZ7             -0.00088     0.00009    -0.00062    -0.01790     0.00463
           HX8              0.00035    -0.00469    -0.00913    -0.02409     0.00807
           HY8             -0.00871     0.00775    -0.00423     0.05646    -0.01583
           HZ8             -0.00816     0.01069     0.00342     0.06484    -0.01991
           CX9             -0.00282    -0.01123    -0.04108     0.00258    -0.00076
           CY9             -0.01978     0.00855    -0.03921    -0.00270     0.00752
           CZ9             -0.00878     0.00915    -0.00380    -0.05249     0.01577
           HX10             0.09877     0.08377     0.56237    -0.00473    -0.02683
           HY10             0.13039    -0.01037     0.38239    -0.16241     0.00770
           HZ10             0.06587    -0.07889    -0.02509    -0.18511     0.02938
           HX11             0.04430     0.04744     0.28960     0.31778    -0.09171
           HY11             0.01674    -0.10696    -0.24646     0.28755    -0.08305
           HZ11             0.05645    -0.00049     0.19056     0.45428    -0.13239
           HX12            -0.10598     0.03312    -0.24660    -0.27763     0.10270
           HY12             0.13888    -0.00772     0.41398    -0.17423     0.00405
           HZ12            -0.00443    -0.03905    -0.11287     0.56579    -0.14469

                             21 A        22 A        23 A        24 A        25 A  
 Wavenumbers [cm-1]         3131.22     3158.73     3170.07     3212.61     3238.23
 Intensities [km/mol]          0.00        0.00        0.00        0.00        0.00
 Intensities [relative]        0.00        0.00        0.00        0.00        0.00
           OX1             -0.00136     0.00005     0.00035     0.00007    -0.00024
           OY1             -0.00137    -0.00021    -0.00031     0.00009    -0.00104
           OZ1             -0.00092     0.00040    -0.00015    -0.00000     0.00101
           HX2             -0.00453    -0.00133     0.00027    -0.00087     0.00365
           HY2              0.00223     0.00266    -0.00011    -0.00159     0.01049
           HZ2             -0.01117    -0.00439    -0.00094    -0.00022    -0.00728
           CX3             -0.02724     0.00073    -0.07040    -0.00075     0.00233
           CY3             -0.04281     0.00095     0.04545     0.00023     0.05046
           CZ3             -0.00516    -0.00044     0.03141    -0.00023    -0.06991
           HX4              0.01955     0.00010    -0.01718     0.00060     0.06813
           HY4             -0.13391    -0.00131     0.00423    -0.00316    -0.45126
           HZ4              0.23264     0.00189     0.02282     0.00605     0.79833
           HX5             -0.25588     0.00354     0.22800     0.00035     0.06707
           HY5              0.62612    -0.00893    -0.59947    -0.00057    -0.14429
           HZ5              0.12286    -0.00189    -0.10093     0.00000    -0.04037
           HX6              0.58609    -0.01216     0.62086     0.00763    -0.16252
           HY6              0.03514    -0.00091     0.05950     0.00073     0.00097
           HZ6             -0.26641     0.00548    -0.29229    -0.00330     0.06629
           OX7              0.00013     0.00070     0.00008     0.00050     0.00001
           OY7              0.00007    -0.00134    -0.00004     0.00033    -0.00009
           OZ7             -0.00012    -0.00078    -0.00005     0.00004    -0.00004
           HX8             -0.00018     0.00345    -0.00008     0.00001    -0.00005
           HY8             -0.00051    -0.00460     0.00014     0.00030     0.00016
           HZ8             -0.00088    -0.00167     0.00074    -0.00079    -0.00030
           CX9              0.00056     0.00812     0.00066    -0.07633     0.00016
           CY9              0.00019    -0.01997     0.00017    -0.04748     0.00066
           CZ9             -0.00085    -0.04441     0.00006     0.00885     0.00010
           HX10            -0.00172    -0.14015    -0.00215    -0.02062     0.00260
           HY10             0.00178     0.19077     0.00255    -0.00766    -0.00317
           HZ10            -0.00122    -0.19393    -0.00311    -0.00122     0.00347
           HX11            -0.01046    -0.44768    -0.00382     0.43059     0.00043
           HY11            -0.00578    -0.24756    -0.00236     0.24508    -0.00001
           HZ11             0.00973     0.42810     0.00390    -0.43804    -0.00042
           HX12             0.00439     0.47684    -0.00238     0.49107    -0.00530
           HY12             0.00285     0.32082    -0.00198     0.32287    -0.00367
           HZ12             0.00262     0.30641    -0.00165     0.33424    -0.00380

                             26 A        27 A        28 A  
 Wavenumbers [cm-1]         3275.82     4119.84     4188.34
 Intensities [km/mol]          0.00        0.00        0.00
 Intensities [relative]        0.00        0.00        0.00
           OX1              0.00004    -0.00602    -0.00026
           OY1             -0.00006     0.02676     0.00108
           OZ1             -0.00019    -0.05420    -0.00226
           HX2             -0.00146     0.08637     0.00410
           HY2              0.00147    -0.43559    -0.01787
           HZ2              0.00184     0.85698     0.03552
           CX3             -0.00020    -0.00010     0.00001
           CY3              0.00013     0.00056     0.00006
           CZ3              0.00043    -0.00094     0.00001
           HX4             -0.00027     0.00375     0.00011
           HY4              0.00182    -0.00372    -0.00005
           HZ4             -0.00329     0.01326     0.00025
           HX5              0.00119     0.00098     0.00006
           HY5             -0.00323     0.00539    -0.00001
           HZ5             -0.00071     0.00313     0.00009
           HX6              0.00175     0.00628     0.00029
           HY6              0.00021     0.00219     0.00003
           HZ6             -0.00067     0.00075     0.00002
           OX7              0.00057    -0.00153     0.03226
           OY7             -0.00063     0.00193    -0.03925
           OZ7              0.00122    -0.00165     0.03343
           HX8             -0.00314     0.01977    -0.50878
           HY8              0.00245    -0.02329     0.61282
           HZ8             -0.01192     0.02538    -0.54523
           CX9             -0.03616     0.00057     0.00036
           CY9              0.04560    -0.00099    -0.00004
           CZ9             -0.06550    -0.00060     0.00157
           HX10             0.41735    -0.00099    -0.00522
           HY10            -0.56808     0.00145     0.00716
           HZ10             0.57199    -0.00024    -0.00613
           HX11            -0.13756    -0.00284    -0.00104
           HY11            -0.07136     0.00090     0.00165
           HZ11             0.11703     0.00345     0.00132
           HX12             0.14527     0.00092    -0.00178
           HY12             0.10327     0.00244     0.00192
           HZ12             0.08400     0.00212     0.00072


 Normal Modes of low/zero frequencies

                                  1           2           3           4           5
 Wavenumbers [cm-1]            0.00        0.00        0.00        0.00        0.00
 Intensities [km/mol]          0.00        0.00        0.00        0.00        0.00
 Intensities [relative]        0.00        0.00        0.00        0.00        0.00
           OX1              0.00000     0.17754    -0.00000     0.00000     0.00000
           OY1              0.09857    -0.04016     0.00878     0.04330    -0.01084
           OZ1              0.10298     0.01570    -0.01818     0.03771    -0.02797
           HX2              0.01191     0.11024     0.06421     0.01320     0.01438
           HY2              0.06108    -0.04707     0.02852     0.06935    -0.03355
           HZ2              0.08249     0.01840    -0.01396     0.04994    -0.04105
           CX3              0.03750     0.14054     0.08764    -0.01211    -0.09495
           CY3              0.10134     0.03667    -0.11315     0.01754     0.06671
           CZ3              0.06043    -0.01433    -0.00141     0.07396     0.00323
           HX4              0.02271     0.21949     0.01092    -0.02708    -0.10907
           HY4              0.14370     0.04469    -0.13580    -0.01196     0.09259
           HZ4              0.08513    -0.01747    -0.00652     0.05918     0.01880
           HX5              0.08173     0.05846     0.21618    -0.01460    -0.17609
           HY5              0.12707     0.00333    -0.06660     0.01155     0.04445
           HZ5              0.01435    -0.00130     0.00652     0.09936    -0.03758
           HX6              0.03791     0.11757     0.10337    -0.00532    -0.07787
           HY6              0.03775     0.12492    -0.23750     0.03049     0.12758
           HZ6              0.04840    -0.04882     0.00918     0.09212     0.05463
           OX7              0.02439    -0.01103     0.16473     0.04261     0.07013
           OY7             -0.04351    -0.01983     0.01016     0.12748    -0.05066
           OZ7              0.04913     0.00775    -0.00371     0.07444    -0.03771
           HX8              0.04548    -0.08226     0.24705     0.05127     0.05714
           HY8             -0.04864    -0.06370     0.08062     0.14446    -0.09645
           HZ8              0.02398     0.02490    -0.00164     0.08525    -0.07642
           CX9             -0.02567     0.05328     0.03797     0.05420     0.18491
           CY9             -0.10486     0.02776    -0.05053     0.15171    -0.02927
           CZ9              0.09543    -0.01085    -0.01043     0.05060     0.01232
           HX10            -0.04959     0.13729    -0.05749     0.04338     0.19703
           HY10            -0.09331     0.07207    -0.12320     0.13051     0.01966
           HZ10             0.12499    -0.02817    -0.01350     0.03703     0.05317
           HX11            -0.01497    -0.00539     0.09450     0.06550     0.19637
           HY11            -0.17058     0.09199    -0.13644     0.17352     0.00681
           HZ11             0.07118    -0.03595     0.00092     0.07369     0.04318
           HX12            -0.05286     0.08297    -0.02745     0.06210     0.25146
           HY12            -0.09776    -0.04119     0.05665     0.16873    -0.09482
           HZ12             0.12794     0.01610    -0.02415     0.02168    -0.01808

                                  6           7           8
 Wavenumbers [cm-1]            0.00       36.49       43.90
 Intensities [km/mol]          0.00        0.00        0.00
 Intensities [relative]        0.00        0.00        0.00
           OX1              0.00000    -0.03992     0.09370
           OY1              0.13129     0.00755    -0.02701
           OZ1             -0.06432    -0.01829    -0.08401
           HX2              0.01242    -0.13728     0.03584
           HY2              0.11621     0.03911     0.07962
           HZ2             -0.07327     0.00736    -0.02343
           CX3              0.03477     0.05944    -0.05495
           CY3              0.11383    -0.02382     0.00679
           CZ3             -0.08565    -0.09550     0.04476
           HX4              0.01945     0.18333     0.05032
           HY4              0.13082    -0.06648    -0.14095
           HZ4             -0.07485    -0.13084    -0.04659
           HX5              0.07672     0.07852    -0.26018
           HY5              0.13345    -0.03541    -0.10514
           HZ5             -0.10525    -0.00245     0.22110
           HX6              0.03570     0.00293    -0.07372
           HY6              0.06394     0.00211     0.28516
           HZ6             -0.09368    -0.21903     0.05944
           OX7              0.02669    -0.08242     0.02308
           OY7              0.06283     0.01194     0.07151
           OZ7             -0.08900     0.00257    -0.03349
           HX8              0.04750     0.09617     0.09975
           HY8              0.07121     0.05917     0.07396
           HZ8             -0.09893    -0.10943    -0.10123
           CX9             -0.02009     0.06130    -0.06528
           CY9              0.02383    -0.00076    -0.05906
           CZ9             -0.06974     0.11697     0.07586
           HX10            -0.04376    -0.17632    -0.17219
           HY10             0.01821    -0.05835    -0.05783
           HZ10            -0.05785     0.23474     0.15604
           HX11            -0.00897     0.28754     0.00606
           HY11            -0.02118    -0.03038    -0.20397
           HZ11            -0.08250     0.33004     0.07067
           HX12            -0.04537     0.16910    -0.10777
           HY12             0.04377     0.07359    -0.01482
           HZ12            -0.05313    -0.11656     0.09268


 Frequencies dumped to record   5400.2
 Frequency information read from record  5400.2

 Zero point energy:  0.11160831 [H]    24495.19 [1/CM]      293.03 [KJ/MOL]


 **********************************************************************************************************************************
 DATASETS  * FILE   NREC   LENGTH (MB)   RECORD NAMES
              1      18       29.31       500      610      700      900      950      970     1000      129      960     1100   
                                          VAR    BASINP    GEOM    SYMINP    ZMAT    AOBASIS   BASIS     P2S    ABASIS      S 
                                         1400     1410     1200     1210     1080     1600     1650     1700   
                                           T        V       H0       H01     AOSYM     SMH    MOLCAS    OPER   

              2       7        1.01       700     1000      520     2100     5300     5450     5400   
                                         GEOM     BASIS   MCVARS     RHF     HESS     NMOD     FREQ   

              4       5        8.03      4100     4000     4200     4300     4400   

 PROGRAMS   *        TOTAL      FREQ      OPTG    HF-SCF       INT
 CPU TIMES  *        69.52     21.92     46.37      0.38      0.71
 REAL TIME  *        74.51 SEC
 DISK USED  *        31.18 MB (local),      450.43 MB (total)
 SF USED    *         8.03 MB
 GA USED    *         0.00 MB       (max)       0.00 MB       (current)
 **********************************************************************************************************************************

 Dump information in style MOLDEN to methanol_methanol.molden                                                        

 Molecular orbitals read from record     2100.2  Type=RHF/CANONICAL  
 Occupation numbers read from record     2100.2  Type=RHF/RHF  
 Orbital energies read from record       2100.2  Type=RHF/CANONICAL  
 Redundancy group numbers read from rec  2100.2  Type=RHF/RHF  

 DUMP ORBITAL  1.1 AS ORBITAL    1  occ=    2.0000  eig=  -20.5662  GROUP=   2
 DUMP ORBITAL  2.1 AS ORBITAL    2  occ=    2.0000  eig=  -20.5127  GROUP=   2
 DUMP ORBITAL  3.1 AS ORBITAL    3  occ=    2.0000  eig=  -11.2782  GROUP=   2
 DUMP ORBITAL  4.1 AS ORBITAL    4  occ=    2.0000  eig=  -11.2470  GROUP=   2
 DUMP ORBITAL  5.1 AS ORBITAL    5  occ=    2.0000  eig=   -1.3837  GROUP=   2
 DUMP ORBITAL  6.1 AS ORBITAL    6  occ=    2.0000  eig=   -1.3362  GROUP=   2
 DUMP ORBITAL  7.1 AS ORBITAL    7  occ=    2.0000  eig=   -0.9425  GROUP=   2
 DUMP ORBITAL  8.1 AS ORBITAL    8  occ=    2.0000  eig=   -0.9057  GROUP=   2
 DUMP ORBITAL  9.1 AS ORBITAL    9  occ=    2.0000  eig=   -0.7185  GROUP=   2
 DUMP ORBITAL 10.1 AS ORBITAL   10  occ=    2.0000  eig=   -0.6726  GROUP=   2
 DUMP ORBITAL 11.1 AS ORBITAL   11  occ=    2.0000  eig=   -0.6368  GROUP=   2
 DUMP ORBITAL 12.1 AS ORBITAL   12  occ=    2.0000  eig=   -0.6118  GROUP=   2
 DUMP ORBITAL 13.1 AS ORBITAL   13  occ=    2.0000  eig=   -0.5992  GROUP=   2
 DUMP ORBITAL 14.1 AS ORBITAL   14  occ=    2.0000  eig=   -0.5743  GROUP=   2
 DUMP ORBITAL 15.1 AS ORBITAL   15  occ=    2.0000  eig=   -0.5195  GROUP=   2
 DUMP ORBITAL 16.1 AS ORBITAL   16  occ=    2.0000  eig=   -0.4757  GROUP=   2
 DUMP ORBITAL 17.1 AS ORBITAL   17  occ=    2.0000  eig=   -0.4640  GROUP=   2
 DUMP ORBITAL 18.1 AS ORBITAL   18  occ=    2.0000  eig=   -0.4200  GROUP=   2

 Total charge:      36.000000
 Frequency information read from record  5400.2

 **********************************************************************************************************************************

 HF/6-311G(D,P)//HF/6-311G(D,P) energy=   -230.160661028870

    OPTG(HF-SCF)          HF-SCF
   -230.16066103   -230.15869297
 **********************************************************************************************************************************
 Molpro calculation terminated
