[Molden Format]
[Molpro variables]
_NUMVAR=  1112.000000000000    
_AVOGAD= 0.6022140760000000E+24
_BOLTZ= 0.1380649000000000E-22
_CLIGHTSI=  299792458.0000000    
_JOULE= 0.4359744722207100E-17
_JPCAL=  4.184000000000000    
_PLANCK= 0.6626070150000000E-33
_BOHR= 0.5291772109030000E-10
_ECHARG= 0.1602176634000000E-18
_ENULL= 0.8854187812800001E-11
_MU= 0.1660539066600000E-26
_EMASS= 0.9109383701500001E-30
_AMU2AU=  1822.888486217313    
_CLIGHT=  29979245800.00000    
_EV= 0.3674932217565494E-01
_KJOULE= 0.3808798847133432E-03
_KJOULE/MOL= 0.3808798847133432E-03
_CM= 0.4556335252912009E-05
_CM-1= 0.4556335252912009E-05
_DEB2SI= 0.3335640951981520E-29
_KCAL= 0.1593601437640628E-02
_KCAL/MOL= 0.1593601437640628E-02
_KELVIN= 0.3166811563455608E-05
_HERTZ= 0.1519829846057038E-15
_HZ= 0.1519829846057038E-15
_TOA= 0.5291772109030000    
_TOANG= 0.5291772109030000    
_TORAD= 0.1745329251994330E-01
_TOCM=  219474.6313631965    
_TODEBYE=  2.541746473194078    
_TOE= 0.4803204712570263E-09
_TOEV=  27.21138624598803    
_TOHERTZ=  6579683920501656.    
_TOHZ=  6579683920501656.    
_TOK=  315775.0248040668    
_TOKCAL=  627.5094740630558    
_TOKELVIN=  315775.0248040668    
_TOKJ=  2625.499639479825    
_TOKJOULE=  2625.499639479825    
_TOKG= 0.1660539066600000E-26
_ANG=  1.889726124625770    
_ANGSTROM=  1.889726124625770    
_RPAREF=  0.000000000000000    
_RPADISS=  0.000000000000000    
_IGNORE_UNDEF=  2.000000000000000    
_STRICTCHECK=  0.000000000000000    
!SEWARD=  0.000000000000000    
!MULTI=  0.000000000000000    
!DFMULTI=  0.000000000000000    
!NUMHESS=  0.000000000000000    
_SEW_ONEEL=  0.000000000000000    
_CPPDONE=FALSE
_DKROLL_DONE=  0.000000000000000    
_FNUC_DONE=  0.000000000000000    
_FOCKDONE=TRUE
_GRADONE=FALSE
_HESSDONE=TRUE
_INTDONE=TRUE
_SCFDONE=TRUE
_MODUL_BLOCK=FALSE
_MODUL_SLATER=TRUE
_MODUL_MRCC=FALSE
_MODUL_NBO6=FALSE
_MODUL_NECI=FALSE
_MODUL_AIMS=TRUE
_MODUL_HDF5=FALSE
_MODUL_GECCO=FALSE
_ISWINDOWS=FALSE
_MRCC_EXEC=
_FITC_AO_SAVED=FALSE
_FITC_MO_SAVED=FALSE
_LSTYP=SEWARD
_INTYP=INTS
_GEOMTYP=XYZ
_GRADTYP=ALASKA
_DIRECT=FALSE
_DKHO= -1.000000000000000    
_FNUC=  0.000000000000000    
_SYNCM=  0.000000000000000    
_BASIS=6-311G(D,P)
_ZCENTRE=MASS
_ZORIENT=  1.000000000000000    
_NELEC=  36.00000000000000    
!SPIN=  0.000000000000000    
_OPTCONV= 0.7061997101370323E-02
_QSDSTEP=  0.000000000000000    
_QSDIRC=  0.000000000000000    
_PROGRAM=FREQ
_CPUSTEP=  21.93000000000000    
_SYSSTEP= 0.7899999999999996    
_WALLSTEP=  22.81000000000000    
!DFSCF=  0.000000000000000    
!SCSGRD=  0.000000000000000    
_NCEN=  12.00000000000000    
_CPUTOT=  69.52000000000000    
_DFTEXFAC=  1.000000000000000    
_DMX=-0.2356536236849809    
_DMY=-0.5391924021319515    
_DMZ=  1.156708854495420    
_DMX_SCF=-0.2356536236849809    
_DMY_SCF=-0.5391924021319515    
_DMZ_SCF=  1.156708854495420    
_FREQUENCIES= 0.2031284196845379E-04
_HOMO=  18.10000000000000    
_EHOMO=-0.4200112074207321    
_LUMO=  19.10000000000000    
_ELUMO= 0.1418722394217257    
_ENERGY= -230.1606610288703    
_ENERGY_METHOD=HF
_ENERGY_BASIS=6-311G(D,P)
_GEOMETRY_METHOD=HF
_GEOMETRY_BASIS=6-311G(D,P)
_ENUC=  129.5216683120888    
_GRADENERG= -230.1606603567189    
_GRADEXFAC=  9999.000000000000    
_GRADMETHOD=  1.000000000000000    
_NMRMETHOD=  0.000000000000000    
_NMRMAGNET=  0.000000000000000    
_VIRIAL=-0.1124647524366119E-03
!GRID_FREEZE= -1.000000000000000    
!NEESE_INDEX=  0.000000000000000    
_ITERATIONS=  11.00000000000000    
_LASTNELEC=  36.00000000000000    
_LASTSPIN=  0.000000000000000    
_LASTSYM=  1.000000000000000    
_MPP_PROG=  1.000000000000000    
_MSNSTATES=  0.000000000000000    
_RS2PHASE=  0.000000000000000    
_NPROC_MPP=  6.000000000000000    
_NPROC_SMP=  6.000000000000000    
_NUMSTEP=  0.000000000000000    
_OPTCONVMX= 0.4204883155585270E-02
_OPTCONVRMS= 0.1289338371152208E-02
_OPTGRAD= 0.1961011378505382E-03
_OPTGRADMX= 0.1347085691102960E-03
_OPTGRADRMS= 0.3580300558438997E-04
!GMAXLAST= 0.1347085691102960E-03
!DMAXLAST= 0.4204883155585270E-02
!DELAST= 0.2527661763451761E-05
_OPTSTEP=  25.00000000000000    
_ORBITAL=  2100.200000000000    
_PI=  3.141592653589793    
_SEIG_MIN= 0.8043763336159795E-02
_SEWPROP=TRUE
_STATUS=  1.000000000000000    
_SYSTOT=  4.470000000000000    
_VERSION=  2024001.000000000    
_WALLTOT=  74.51000000000001    
_ZPE= 0.1116083145989769    
_DATE=24-Oct-24
_LASTORB=0
_OUTPUT=/home/lme/Theoretische_Chemie/Paper/Calc_Paper/methanol_dimer/methanol_methanol.out
_PGROUP=C1
_TIME=08:34:21
_LIBMOL=/usr/local/molpro/molpro_2024.1.0_sockets/lib/
_VIGRDC=  0.000000000000000    
!VIBCNT=  0.000000000000000    
!SURFREC=  0.000000000000000    
!XSURFREC=  0.000000000000000    
!XPOLYREC=  0.000000000000000    
!ROTREC=  0.000000000000000    
!POLYREC=  0.000000000000000    
!DIPREC=  0.000000000000000    
!DIP4DREC=  0.000000000000000    
!DIPROT=  0.000000000000000    
!DIP4DROT=  0.000000000000000    
!PTREC=  0.000000000000000    
!PT4DREC=  0.000000000000000    
!VSCFREC=  0.000000000000000    
!VCIREC=  0.000000000000000    
!PVCIREC=  0.000000000000000    
!VMP2REC=  0.000000000000000    
!VMCSCFREC=  0.000000000000000    
!VMRCIREC=  0.000000000000000    
!VIBSTATEREC=  0.000000000000000    
!VIBSTATECNT=  0.000000000000000    
!VIBINFO=  0.000000000000000    
!GAREC=  0.000000000000000    
!SCFORB=  21002.00000000000    
!DEFCORE=  4.000000000000000    
!SCORE=  0.000000000000000    
!NEWMOL=  0.000000000000000    
!NEWSYM=  0.000000000000000    
_SLFILES=slscratch
_NGSSTO=  9.000000000000000    
_SIN=SIN
_COS=COS
_TAN=TAN
_ACOS=ACOS
_ASIN=ASIN
_ATAN=ATAN
_COSH=COSH
_SINH=SINH
_TANH=TANH
_ABS=ABS
_MOD=MOD
_ERF=ERF
_REFC=REFC
_ERFC=ERFC
_HYPOT=HYPOT
_J0=J0
_J1=J1
_JN=JN
_GAMMA=GAMMA
_LGAMMA=LGAMMA
_Y0=Y0
_Y1=Y1
_YN=YN
_EXP=EXP
_LOG=LOG
_LOG10=LOG10
_SQRT=SQRT
_INT=INT
_NINT=NINT
_MAX=MAX
_MIN=MIN
_COSMO=  0.000000000000000    
_COSMOIT=  0.000000000000000    
_COSMOES=  0.000000000000000    
_COSMOEDS=  0.000000000000000    
_COSMOEC=  0.000000000000000    
_COSMOEDCORR=  0.000000000000000    
_FEPSI=  1.000000000000000    
_SL_IsMM=  0.000000000000000    
_SL_NSYM=  1.000000000000000    
_SL_System_BitSw=  0.000000000000000    
_SL_Unique_atoms=  0.000000000000000    
_SL_GRAD=  0.000000000000000    
_SL_MAXUPD_Hess=  5.000000000000000    
_SL_N_PRINT_COD=  5.000000000000000    
_SL_PRINT_CODES=  0.000000000000000    
_SL_BasType=  0.000000000000000    
_SL_Energy_Pred=  0.000000000000000    
_SL_New_Coords=  0.000000000000000    
_SL_Total_Nuclea=  0.000000000000000    
_SL_Highest_Mltp=  0.000000000000000    
_SL_Ref_Geom=  0.000000000000000    
_SL_Symmetry_ope=  1.000000000000000    
_SL_agrad=  0.000000000000000    
_SL_GrdMax=  0.000000000000000    
_SL_GrdNorm=  0.000000000000000    
_SL_GrdRMS=  0.000000000000000    
_SL_Hss_Q=  0.000000000000000    
_SL_Hss_X=  0.000000000000000    
_SL_BMxOld=  0.000000000000000    
_SL_KtB=  0.000000000000000    
_SL_TROld=  0.000000000000000    
_SL_No_of_Intern=  0.000000000000000    
_SL_Hess=  0.000000000000000    
_SL_K=  0.000000000000000    
!LATTICE= -1.000000000000000    
!NEWLATTICE=  0.000000000000000    
!LATGRAD_VAR=FALSE
!SEW_LATTICE=  1.000000000000000    
!AIC_ONEEL=  0.000000000000000    
!LOCAL=  0.000000000000000    
!SAVEDOM= -1.000000000000000    
!RESTDOM= -1.000000000000000    
!SAVEDOM_HF= -1.000000000000000    
!RESTDOM_HF= -1.000000000000000    
!HESSREC=  5300.200000000000    
!FREQREC=  5400.200000000000    
!NMODREC=  5450.200000000000    
!GTASKS=  0.000000000000000    
!HTASKS=  0.000000000000000    
!SAVEDOM_EOM= -1.000000000000000    
!RESTDOM_EOM= -1.000000000000000    
!GRADSTATE= -1.000000000000000    
!DEBUG=  0.000000000000000    
!CFIT_CPHF=  0.000000000000000    
!RDOMAUX_CPHF=  0.000000000000000    
!THRAO_CPHF= 0.1000000000000000E-11
!THRMO_CPHF= 0.1000000000000000E-11
!THROV_CPHF= 0.1000000000000000E-13
!THRSW_CPHF= 0.1000000000000000E-11
!THRPROD_CPHF= 0.1000000000000000E-11
!THRAOPR_CPHF= 0.1000000000000000E-11
!CFIT_SCFGRD=  0.000000000000000    
!RDOMAUX_SCFGRD=  0.000000000000000    
!THRAO_SCFGRD= 0.1000000000000000E-11
!THRMO_SCFGRD= 0.1000000000000000E-11
!THROV_SCFGRD= 0.1000000000000000E-13
!THRSW_SCFGRD= 0.1000000000000000E-11
!THRPROD_SCFGRD= 0.1000000000000000E-11
!THRAOPR_SCFGRD= 0.1000000000000000E-11
!LOCFIT_SCF=  0.000000000000000    
!LOCFIT_MP2=  0.000000000000000    
_RIDOM=  0.000000000000000    
!CC2_METHOD=  0.000000000000000    
_BASIS2006=FALSE
_SVDDEL= -1.000000000000000    
_SVDDELA= -1.000000000000000    
_SVDDELP= -1.000000000000000    
_SVDDELF= -1.000000000000000    
_SVDDELS= -1.000000000000000    
_SVDDEL_ABS= -1.000000000000000    
_SVDDELA_ABS= -1.000000000000000    
_SVDDELP_ABS= -1.000000000000000    
_SVDDELF_ABS= -1.000000000000000    
_SVDDELS_ABS= -1.000000000000000    
_MAXBASIS=  0.000000000000000    
!OPT_CONICAL=  0.000000000000000    
!CLEARSP_JGRID=  0.000000000000000    
_GRDHYBR=  0.000000000000000    
_STATEGRAD=  1.000000000000000    
_4EXT_NDISKS=  1.000000000000000    
!EMBEDFLAG=  1.000000000000000    
!EMBED=FALSE
!EMBED_F12=FALSE
!EMBEDNUC=  0.000000000000000    
_EMBEDENERGY=  0.000000000000000    
!EMBED_DFC=FALSE
!NUM_VOIDS=  0.000000000000000    
_IBODY=  0.000000000000000    
_EMBE_CORR=  0.000000000000000    
!EMBED_PROJ=FALSE
!EMB_PROJ_ZMU=  1000000.000000000    
!CORRECTION_HF=  0.000000000000000    
!EMBED_AORB=  0.000000000000000    
!EMBED_NACORR=  0.000000000000000    
!EMBED_MP2=FALSE
!EMBED_TRUNC_PERTURBATION=FALSE
!EMBED_FROZEN=  0.000000000000000    
!EMBED_ACTIVE=  0.000000000000000    
_CHANGE_BASIS=FALSE
_RESTORE_BASIS=FALSE
_FIX_EMBED_GUESS=FALSE
_EMBED_SCF=FALSE
_NEOBAS=FALSE
_NEOOVE=FALSE
_PRINEO=FALSE
_HUZINAGA_T=FALSE
_HUZINAGA_F=FALSE
_HUZINAGA=FALSE
_HUZINAGA_CORRECT=FALSE
!FASTLATGRAD=  1.000000000000000    
!FASTVLAMBDA= -1.000000000000000    
!IFORCE= -1.000000000000000    
!USESYM= -1.000000000000000    
_SINDEX=  0.000000000000000    
_AVDOM_OSV=  0.000000000000000    
_AVDOM_PNO=  0.000000000000000    
_AVDOM_PNOCC=  0.000000000000000    
_AVDOM_TNO=  0.000000000000000    
_AVDOM_TNOIT=  0.000000000000000    
_AVDOM_PAO=  0.000000000000000    
_AVDOM_LMO=  0.000000000000000    
_CC2OSV_FLAG=  0.000000000000000    
_EOMCCSD_CONV=FALSE
_TMADC2_FLAG=FALSE
_PROPADC2_FLAG=FALSE
_LEN_VirQ=  0.000000000000000    
_GRDCC2LR_FLAG=FALSE
_GRDADC2_FLAG=FALSE
_RO_VGLOBAL=  0.000000000000000    
_OPT=FALSE
_FREQ=FALSE
_HESS=FALSE
_CMRCC_callName=EMPTY
_CMRCC_callCount=  0.000000000000000    
_GECCO_CIROOT=  1.000000000000000    
_SYM_CATION=  1.000000000000000    
_MON_A=FALSE
_MON_B=FALSE
_MAXGEOM=  100.0000000000000    
!MAXGEOM=  100.0000000000000    
_NCORE=  0.000000000000000    
_NLARGECORE=  0.000000000000000    
GX1= 0.4525804283926951    
GY1= 0.4747382977751923    
GZ1= -1.368811029009539    
GX2= 0.5304496265156342    
GY2= 0.4284058626013591E-01
GZ2=-0.5333879267894300    
GX3=-0.4131763666736081    
GY3=-0.2590434911007928    
GZ3= -2.179639527584848    
GX4=-0.5035940303403462    
GY4= 0.2608220847560501    
GZ4= -3.125707737237674    
GX5=-0.3757524753406518E-01
GY5= -1.262053228159906    
GZ5= -2.379307920340184    
GX6= -1.407673459949059    
GY6=-0.3477690452913220    
GZ6= -1.744243433848119    
GX7= 0.2235113389489360    
GY7=-0.5913871511623212    
GZ7=  1.340276352697629    
GX8= 0.7178440946109775    
GY8= -1.184631256796928    
GZ8=  1.876087302470249    
GX9=-0.3128711195171396    
GY9= 0.4415147406307207    
GZ9=  2.129009624580937    
GX10=-0.8121604551761489    
GY10=  1.125796787345449    
GZ10=  1.457622969425691    
GX11= -1.036591586569486    
GY11= 0.5983132012512546E-01
GZ11=  2.843976658123757    
GX12= 0.4641601499699369    
GY12= 0.9838102522413267    
GZ12=  2.660667592509529    
OX1= 0.8552530590279985    
OY1= 0.8971253636661490    
OZ1= -2.586677961195210    
HX2=  1.002404517024577    
HY2= 0.8095697505006261E-01
HZ2= -1.007957099813964    
CX3=-0.7807901741810737    
CY3=-0.4895212525474314    
CZ3= -4.118921757544060    
HX4=-0.9516547953397350    
HY4= 0.4928823074428648    
HZ4= -5.906731569002934    
HX5=-0.7100692690440298E-01
HY5= -2.384934955922062    
HZ5= -4.496240335595857    
HX6= -2.660117312208085    
HY6=-0.6571882502231738    
HZ6= -3.296142384649752    
OX7= 0.4223752163618898    
OY7= -1.117559749319448    
OZ7=  2.532755237910852    
HX8=  1.356528738994697    
HY8= -2.238628634017414    
HZ8=  3.545291187556718    
CX9=-0.5912407281924504    
CY9= 0.8343419397772438    
CZ9=  4.023245107150299    
HX10= -1.534760829534325    
HY10=  2.127447600066458    
HZ10=  2.754508205178320    
HX11= -1.958874201707633    
HY11= 0.1130648087112972    
HZ11=  5.374336988682356    
HX12= 0.8771355614084051    
HY12=  1.859131935335104    
HZ12=  5.027933058510410    
[Atoms] Angs
O     1    8         0.4525804284        0.4747382978       -1.3688110290
H     2    1         0.5304496265        0.0428405863       -0.5333879268
C     3    6        -0.4131763667       -0.2590434911       -2.1796395276
H     4    1        -0.5035940303        0.2608220848       -3.1257077372
H     5    1        -0.0375752475       -1.2620532282       -2.3793079203
H     6    1        -1.4076734599       -0.3477690453       -1.7442434338
O     7    8         0.2235113389       -0.5913871512        1.3402763527
H     8    1         0.7178440946       -1.1846312568        1.8760873025
C     9    6        -0.3128711195        0.4415147406        2.1290096246
H    10    1        -0.8121604552        1.1257967873        1.4576229694
H    11    1        -1.0365915866        0.0598313201        2.8439766581
H    12    1         0.4641601500        0.9838102522        2.6606675925
[GTO]
   1 0
 s    6  1.00
  0.8588500000D+04  0.1895150083D-02
  0.1297230000D+04  0.1438590063D-01
  0.2992960000D+03  0.7073200310D-01
  0.8737710000D+02  0.2400010105D+00
  0.2567890000D+02  0.5947970261D+00
  0.3740040000D+01  0.2808020123D+00
 s    3  1.00
  0.4211750000D+02  0.1138890124D+00
  0.9628370000D+01  0.9208111006D+00
  0.2853320000D+01 -0.3274470358D-02
 s    1  1.00
  0.9056610000D+00  0.1000000000D+01
 s    1  1.00
  0.2556110000D+00  0.1000000000D+01
 p    3  1.00
  0.4211750000D+02  0.3651139738D-01
  0.9628370000D+01  0.2371529830D+00
  0.2853320000D+01  0.8197019412D+00
 p    1  1.00
  0.9056610000D+00  0.1000000000D+01
 p    1  1.00
  0.2556110000D+00  0.1000000000D+01
 d    1  1.00
  0.1292000000D+01  0.1000000000D+01
  
   2 0
 s    3  1.00
  0.3386500000D+02  0.2549381454D-01
  0.5094790000D+01  0.1903731086D+00
  0.1158790000D+01  0.8521614860D+00
 s    1  1.00
  0.3258400000D+00  0.1000000000D+01
 s    1  1.00
  0.1027410000D+00  0.1000000000D+01
 p    1  1.00
  0.7500000000D+00  0.1000000000D+01
  
   3 0
 s    6  1.00
  0.4563240000D+04  0.1966650249D-02
  0.6820240000D+03  0.1523060193D-01
  0.1549730000D+03  0.7612690966D-01
  0.4445530000D+02  0.2608010331D+00
  0.1302900000D+02  0.6164620782D+00
  0.1827730000D+01  0.2210060280D+00
 s    3  1.00
  0.2096420000D+02  0.1146600807D+00
  0.4803310000D+01  0.9199996477D+00
  0.1459330000D+01 -0.3030682134D-02
 s    1  1.00
  0.4834560000D+00  0.1000000000D+01
 s    1  1.00
  0.1455850000D+00  0.1000000000D+01
 p    3  1.00
  0.2096420000D+02  0.4024869267D-01
  0.4803310000D+01  0.2375939567D+00
  0.1459330000D+01  0.8158538515D+00
 p    1  1.00
  0.4834560000D+00  0.1000000000D+01
 p    1  1.00
  0.1455850000D+00  0.1000000000D+01
 d    1  1.00
  0.6260000000D+00  0.1000000000D+01
  
   4 0
 s    3  1.00
  0.3386500000D+02  0.2549381454D-01
  0.5094790000D+01  0.1903731086D+00
  0.1158790000D+01  0.8521614860D+00
 s    1  1.00
  0.3258400000D+00  0.1000000000D+01
 s    1  1.00
  0.1027410000D+00  0.1000000000D+01
 p    1  1.00
  0.7500000000D+00  0.1000000000D+01
  
   5 0
 s    3  1.00
  0.3386500000D+02  0.2549381454D-01
  0.5094790000D+01  0.1903731086D+00
  0.1158790000D+01  0.8521614860D+00
 s    1  1.00
  0.3258400000D+00  0.1000000000D+01
 s    1  1.00
  0.1027410000D+00  0.1000000000D+01
 p    1  1.00
  0.7500000000D+00  0.1000000000D+01
  
   6 0
 s    3  1.00
  0.3386500000D+02  0.2549381454D-01
  0.5094790000D+01  0.1903731086D+00
  0.1158790000D+01  0.8521614860D+00
 s    1  1.00
  0.3258400000D+00  0.1000000000D+01
 s    1  1.00
  0.1027410000D+00  0.1000000000D+01
 p    1  1.00
  0.7500000000D+00  0.1000000000D+01
  
   7 0
 s    6  1.00
  0.8588500000D+04  0.1895150083D-02
  0.1297230000D+04  0.1438590063D-01
  0.2992960000D+03  0.7073200310D-01
  0.8737710000D+02  0.2400010105D+00
  0.2567890000D+02  0.5947970261D+00
  0.3740040000D+01  0.2808020123D+00
 s    3  1.00
  0.4211750000D+02  0.1138890124D+00
  0.9628370000D+01  0.9208111006D+00
  0.2853320000D+01 -0.3274470358D-02
 s    1  1.00
  0.9056610000D+00  0.1000000000D+01
 s    1  1.00
  0.2556110000D+00  0.1000000000D+01
 p    3  1.00
  0.4211750000D+02  0.3651139738D-01
  0.9628370000D+01  0.2371529830D+00
  0.2853320000D+01  0.8197019412D+00
 p    1  1.00
  0.9056610000D+00  0.1000000000D+01
 p    1  1.00
  0.2556110000D+00  0.1000000000D+01
 d    1  1.00
  0.1292000000D+01  0.1000000000D+01
  
   8 0
 s    3  1.00
  0.3386500000D+02  0.2549381454D-01
  0.5094790000D+01  0.1903731086D+00
  0.1158790000D+01  0.8521614860D+00
 s    1  1.00
  0.3258400000D+00  0.1000000000D+01
 s    1  1.00
  0.1027410000D+00  0.1000000000D+01
 p    1  1.00
  0.7500000000D+00  0.1000000000D+01
  
   9 0
 s    6  1.00
  0.4563240000D+04  0.1966650249D-02
  0.6820240000D+03  0.1523060193D-01
  0.1549730000D+03  0.7612690966D-01
  0.4445530000D+02  0.2608010331D+00
  0.1302900000D+02  0.6164620782D+00
  0.1827730000D+01  0.2210060280D+00
 s    3  1.00
  0.2096420000D+02  0.1146600807D+00
  0.4803310000D+01  0.9199996477D+00
  0.1459330000D+01 -0.3030682134D-02
 s    1  1.00
  0.4834560000D+00  0.1000000000D+01
 s    1  1.00
  0.1455850000D+00  0.1000000000D+01
 p    3  1.00
  0.2096420000D+02  0.4024869267D-01
  0.4803310000D+01  0.2375939567D+00
  0.1459330000D+01  0.8158538515D+00
 p    1  1.00
  0.4834560000D+00  0.1000000000D+01
 p    1  1.00
  0.1455850000D+00  0.1000000000D+01
 d    1  1.00
  0.6260000000D+00  0.1000000000D+01
  
  10 0
 s    3  1.00
  0.3386500000D+02  0.2549381454D-01
  0.5094790000D+01  0.1903731086D+00
  0.1158790000D+01  0.8521614860D+00
 s    1  1.00
  0.3258400000D+00  0.1000000000D+01
 s    1  1.00
  0.1027410000D+00  0.1000000000D+01
 p    1  1.00
  0.7500000000D+00  0.1000000000D+01
  
  11 0
 s    3  1.00
  0.3386500000D+02  0.2549381454D-01
  0.5094790000D+01  0.1903731086D+00
  0.1158790000D+01  0.8521614860D+00
 s    1  1.00
  0.3258400000D+00  0.1000000000D+01
 s    1  1.00
  0.1027410000D+00  0.1000000000D+01
 p    1  1.00
  0.7500000000D+00  0.1000000000D+01
  
  12 0
 s    3  1.00
  0.3386500000D+02  0.2549381454D-01
  0.5094790000D+01  0.1903731086D+00
  0.1158790000D+01  0.8521614860D+00
 s    1  1.00
  0.3258400000D+00  0.1000000000D+01
 s    1  1.00
  0.1027410000D+00  0.1000000000D+01
 p    1  1.00
  0.7500000000D+00  0.1000000000D+01


[MO]
 Sym=      1.1
 Ene=     -20.5662
 Spin= Alpha
 Occup=    2.000000
1 -0.000023961984607
2 -0.000026384040802
3 0.000046122086124
4 -0.000122706455263
5 -0.000006231284919
6 0.000001857674196
7 -0.000009460605269
8 0.000021849095722
9 -0.000007411802784
10 0.000036927456602
11 -0.000040330988181
12 0.000025744449507
13 -0.000127911575446
14 0.000000025395681
15 0.000001172287860
16 -0.000001197683540
17 -0.000003872423372
18 0.000004269514897
19 -0.000002471702068
20 -0.000035970262162
21 0.000154238044587
22 0.000156249676961
23 -0.000015616378371
24 -0.000011062156010
25 0.000048363716004
26 0.000000250105508
27 -0.000001421095876
28 0.000012036040430
29 -0.000103389198521
30 -0.000000531731808
31 -0.000000618931639
32 -0.000003347642171
33 -0.000000543651964
34 -0.000000309293247
35 0.000019755902504
36 -0.000029963123848
37 -0.000034136536859
38 -0.000018729250736
39 0.000007278206824
40 -0.000005465386485
41 -0.000001812820338
42 -0.000000551817757
43 0.000001122460502
44 0.000008283950041
45 0.000001182306241
46 0.000030254062885
47 -0.000000379084797
48 0.000001979566114
49 -0.000004530534478
50 0.000007565823479
51 -0.000001967270415
52 0.000020354204396
53 -0.000022241216821
54 0.000001117773474
55 0.000004459862984
56 -0.000001589548516
57 0.000002560243439
58 -0.000008847991948
59 0.000013798646603
60 -0.000001715515257
61 0.000001924793217
62 -0.000000073405969
63 0.55143721042075
64 0.47165916094965
65 0.005681361805473
66 -0.000766613790621
67 0.000256230493488
68 0.000142711675027
69 0.001627279402018
70 -0.000086469772768
71 -0.000036584594762
72 -0.000633909944727
73 0.000116148067424
74 -0.000212166877339
75 0.000157782254936
76 0.000063059198558
77 -0.000049948070140
78 -0.000013111128418
79 0.000134224970154
80 0.000010701620027
81 -0.000056645413424
82 0.000202321800374
83 0.000019294109103
84 0.000051986772546
85 -0.000025928987623
86 0.000061003723403
87 0.000003959744508
88 -0.000002804193362
89 -0.000029920960218
90 0.000084283942088
91 0.000504970347005
92 0.000005199743023
93 -0.000019933278214
94 -0.000024107780882
95 0.000111628679450
96 -0.000189052932087
97 -0.000106032899632
98 -0.000004681292886
99 -0.000064003386667
100 -0.000209533288472
101 -0.000017480856434
102 0.000040259796227
103 -0.000022778939793
104 -0.000059553471118
105 -0.000053973638348
106 0.000078748478593
107 0.000021054356392
108 -0.000102894630053
109 -0.000097309889499
110 0.000005954151735
111 -0.000007432369325
112 0.000010093214418
113 0.000011229154625
114 -0.000072764119561
115 0.000002089395380
116 0.000004839519074
117 0.000016742477613
118 0.000023306810875
119 0.000006938745104
120 -0.000048224169720
121 0.000001940170126
122 -0.000017029621199
123 0.000005433069444
124 0.000022738003293
 Sym=      2.1
 Ene=     -20.5127
 Spin= Alpha
 Occup=    2.000000
1 0.55143520209087
2 0.47165951673474
3 0.005692455172415
4 -0.000866190585332
5 -0.000812191848144
6 -0.001439960489521
7 0.000383807554238
8 0.000304456895111
9 0.000519217116891
10 -0.000118873728501
11 0.000052186756224
12 -0.000001071389534
13 0.000127871334781
14 0.000031670036821
15 0.000022661528456
16 -0.000054331565277
17 -0.000100598833795
18 -0.000116298911935
19 -0.000023965158800
20 0.000201905894105
21 0.000082231328607
22 0.000209700214220
23 -0.000044334344939
24 -0.000011142830550
25 -0.000069077806862
26 -0.000002581689548
27 -0.000034314326720
28 0.000106060750003
29 0.000469117149335
30 0.000020497919791
31 0.000025638231817
32 0.000005362692494
33 0.000157099861057
34 0.000105165180042
35 0.000197657763230
36 0.000123580457511
37 0.000182410147140
38 -0.000014414590893
39 0.000013540416558
40 -0.000036042791345
41 0.000022502374787
42 0.000050403421753
43 0.000092926180706
44 0.000078253209132
45 0.000029424462176
46 -0.000120701012339
47 -0.000055265247955
48 -0.000000807008235
49 -0.000009096356418
50 0.000011514532426
51 0.000006674384674
52 -0.000038839883654
53 -0.000022272544450
54 -0.000030008073502
55 -0.000009182632341
56 -0.000000886586412
57 0.000008866957039
58 -0.000048141835146
59 -0.000002677704530
60 -0.000003211476056
61 -0.000028366702971
62 -0.000013686633573
63 0.000024680744825
64 0.000020567690670
65 0.000003736301393
66 0.000002723446910
67 -0.000001247923936
68 -0.000000394396933
69 0.000008306906284
70 0.000002383040947
71 0.000000106574786
72 -0.000024688109561
73 -0.000022211130250
74 0.000011824135001
75 0.000090314639036
76 -0.000000570587367
77 0.000000469675218
78 0.000000100912149
79 0.000000323866011
80 0.000000175912554
81 0.000003831071475
82 -0.000006247564193
83 0.000013856134863
84 -0.000025711807488
85 0.000004360954428
86 -0.000001618119567
87 -0.000011655061801
88 -0.000000008085820
89 -0.000000032129960
90 0.000003943486853
91 -0.000073607543650
92 0.000001412873409
93 -0.000002945098029
94 0.000003494373253
95 -0.000008445994256
96 0.000012389836201
97 -0.000013132448043
98 -0.000018210136849
99 0.000015649028338
100 0.000028976158522
101 -0.000000039920321
102 -0.000005871732019
103 0.000005911652339
104 0.000000765213645
105 -0.000000258589375
106 -0.000002483194765
107 -0.000000225567884
108 0.000002707910678
109 -0.000003208378789
110 -0.000002083688238
111 0.000003103918257
112 0.000001001017009
113 0.000000850940904
114 0.000004171238929
115 0.000001153773833
116 0.000001578631381
117 -0.000001546046987
118 -0.000001975295442
119 -0.000003209447934
120 0.000024872284847
121 -0.000004500935723
122 -0.000001301241450
123 -0.000003847461541
124 -0.000004770788866
 Sym=      3.1
 Ene=     -11.2782
 Spin= Alpha
 Occup=    2.000000
1 0.000000030025390
2 0.000000472767891
3 -0.000002871137697
4 0.000001323125453
5 0.000001300835642
6 -0.000002066907233
7 -0.000000010217622
8 -0.000003752871653
9 0.000007051655287
10 -0.000002234822113
11 0.000005298702951
12 -0.000007942213046
13 -0.000016814287181
14 0.000001635815005
15 0.000000726037610
16 -0.000002361852615
17 0.000000531535210
18 -0.000000372143216
19 0.000002778265682
20 0.000003191279169
21 0.000004435455392
22 -0.000011396879347
23 0.000001030730737
24 0.000004757538566
25 -0.000014764539882
26 0.000000074182826
27 0.000000294498257
28 -0.000002175979035
29 0.000007674988341
30 -0.000000836354403
31 -0.000000530962327
32 -0.000000628356675
33 0.000004841725434
34 0.000001025952182
35 0.000001098369140
36 -0.000017660980156
37 -0.000009219093667
38 -0.000003350874516
39 -0.000003250629621
40 0.000001746602934
41 0.000001504026687
42 -0.000002337453008
43 -0.000000070299822
44 0.000000304223812
45 0.000000021613195
46 -0.000001215154413
47 0.000004620185128
48 0.000000447009932
49 0.000001381179447
50 0.000000536863029
51 0.000000471129322
52 -0.000005445930104
53 0.000007609161498
54 0.000001359139178
55 -0.000000703388466
56 0.000001014060485
57 -0.000002969103031
58 0.000015701048055
59 -0.000040410447772
60 0.000000619972932
61 0.000000218141037
62 -0.000000696518206
63 -0.000071743486611
64 -0.000129880214726
65 0.000301423540418
66 0.000375731430631
67 -0.000035441399580
68 0.000072819727008
69 0.000063901066815
70 -0.000224716044698
71 0.000423604544839
72 0.000310558466750
73 -0.000058861928575
74 0.000121564423462
75 0.000089418659667
76 -0.000068269861950
77 0.000060281961952
78 0.000007987899998
79 -0.000093715722704
80 -0.000094657400209
81 0.000180456948035
82 -0.000010354810110
83 0.000027427114375
84 -0.000029170130623
85 -0.000027039870869
86 0.000031164249609
87 -0.000028979959065
88 0.56343381042645
89 0.46655614972936
90 0.004172670125535
91 -0.001285176413292
92 0.000442618842523
93 -0.000822565167353
94 -0.000510781628607
95 -0.000349309235359
96 0.000653324045375
97 0.000390978945895
98 0.000074463441588
99 -0.000129223770729
100 -0.000039889841060
101 0.000072973408152
102 -0.000095009459150
103 0.000022036050998
104 0.000129840562170
105 0.000132670215351
106 -0.000238627347724
107 0.000346427246108
108 0.000016703300470
109 0.000324952463057
110 -0.000009276970552
111 0.000001229560461
112 -0.000057948978337
113 0.000349343976452
114 0.000068490334290
115 0.000260607489428
116 -0.000001863420802
117 -0.000043968314304
118 -0.000003580264033
119 0.000349314480356
120 0.000064857547905
121 0.000261666439399
122 0.000040445100324
123 -0.000018564012379
124 -0.000007083554682
 Sym=      4.1
 Ene=     -11.2470
 Spin= Alpha
 Occup=    2.000000
1 -0.000074557427427
2 -0.000133991900789
3 0.000319287190364
4 0.000305296743674
5 -0.000073008529768
6 -0.000066242478793
7 -0.000060618256171
8 -0.000339628296432
9 -0.000277412443198
10 -0.000339190279793
11 -0.000083309537679
12 -0.000068295067414
13 -0.000073555697453
14 0.000028280802697
15 -0.000005995157054
16 -0.000022285645643
17 0.000131114157916
18 0.000127768046134
19 0.000128611456164
20 -0.000009273755653
21 0.000037892752973
22 -0.000018479970087
23 -0.000009025111307
24 0.000019899285087
25 -0.000048893407704
26 0.56344111122339
27 0.46655838028016
28 0.004125949731757
29 -0.001229755956504
30 0.000537403252785
31 0.000420825012582
32 0.000554580640882
33 -0.000432804299894
34 -0.000333915843771
35 -0.000447395743238
36 0.000083070413175
37 0.000053131381957
38 0.000095490132168
39 -0.000033004893421
40 0.000021362721533
41 0.000011642171888
42 -0.000133886043247
43 -0.000152790171100
44 -0.000152824641126
45 0.000348770522179
46 0.000057886477314
47 0.000274752723342
48 0.000021150219452
49 0.000037246107056
50 -0.000007605553093
51 0.000349133957889
52 0.000082716368523
53 0.000255939873613
54 0.000032698250141
55 0.000000685238941
56 0.000020526403992
57 0.000350364111368
58 0.000076096590802
59 0.000268380273471
60 0.000004118487287
61 0.000019273903185
62 0.000033423440956
63 -0.000000028455841
64 0.000000140868492
65 -0.000002007599885
66 0.000011880305607
67 0.000000639889549
68 0.000000427364379
69 -0.000000233359400
70 -0.000001040089819
71 -0.000000663197255
72 -0.000000085495326
73 0.000001671583607
74 0.000005211503377
75 0.000003034365879
76 0.000000195890465
77 0.000000137505080
78 -0.000000333395545
79 -0.000000126081298
80 -0.000000189307845
81 -0.000000011828434
82 -0.000001377803146
83 0.000003357130205
84 -0.000004002188257
85 -0.000000396756067
86 -0.000000989347773
87 -0.000000034311210
88 -0.000000148659872
89 0.000000125463059
90 -0.000002146789857
91 0.000008184177376
92 -0.000000140400754
93 0.000000731023677
94 0.000000027585559
95 0.000002245273021
96 -0.000002424567271
97 0.000001462687355
98 -0.000000942451147
99 0.000013459417732
100 0.000005774537699
101 0.000000638611050
102 -0.000000671639085
103 0.000000033028035
104 0.000002760703122
105 0.000001076216680
106 0.000000881160957
107 -0.000002435163481
108 0.000015118388249
109 -0.000031421458215
110 0.000000187734709
111 -0.000000532334249
112 0.000000422849691
113 -0.000000597348950
114 0.000001278968453
115 0.000002508181453
116 -0.000000523929978
117 -0.000001004914520
118 -0.000001553224630
119 0.000000911650268
120 -0.000009042554050
121 0.000003762933765
122 0.000002028368888
123 0.000000757621838
124 0.000000037363571
 Sym=      5.1