 Entering Gaussian System, Link 0=g16
 Input=bicycloheptane.gjf
 Output=bicycloheptane.log
 Initial command:
 /usr/local/g16/l1.exe "/scratch/lme/Gau-1292440.inp" -scrdir="/scratch/lme/"
 Entering Link 1 = /usr/local/g16/l1.exe PID=   1292442.
  
 Copyright (c) 1988,1990,1992,1993,1995,1998,2003,2009,2016,
            Gaussian, Inc.  All Rights Reserved.
  
 This is part of the Gaussian(R) 16 program.  It is based on
 the Gaussian(R) 09 system (copyright 2009, Gaussian, Inc.),
 the Gaussian(R) 03 system (copyright 2003, Gaussian, Inc.),
 the Gaussian(R) 98 system (copyright 1998, Gaussian, Inc.),
 the Gaussian(R) 94 system (copyright 1995, Gaussian, Inc.),
 the Gaussian 92(TM) system (copyright 1992, Gaussian, Inc.),
 the Gaussian 90(TM) system (copyright 1990, Gaussian, Inc.),
 the Gaussian 88(TM) system (copyright 1988, Gaussian, Inc.),
 the Gaussian 86(TM) system (copyright 1986, Carnegie Mellon
 University), and the Gaussian 82(TM) system (copyright 1983,
 Carnegie Mellon University). Gaussian is a federally registered
 trademark of Gaussian, Inc.
  
 This software contains proprietary and confidential information,
 including trade secrets, belonging to Gaussian, Inc.
  
 This software is provided under written license and may be
 used, copied, transmitted, or stored only in accord with that
 written license.
  
 The following legend is applicable only to US Government
 contracts under FAR:
  
                    RESTRICTED RIGHTS LEGEND
  
 Use, reproduction and disclosure by the US Government is
 subject to restrictions as set forth in subparagraphs (a)
 and (c) of the Commercial Computer Software - Restricted
 Rights clause in FAR 52.227-19.
  
 Gaussian, Inc.
 340 Quinnipiac St., Bldg. 40, Wallingford CT 06492
  
  
 ---------------------------------------------------------------
 Warning -- This program may not be used in any manner that
 competes with the business of Gaussian, Inc. or will provide
 assistance to any competitor of Gaussian, Inc.  The licensee
 of this program is prohibited from giving any competitor of
 Gaussian, Inc. access to this program.  By using this program,
 the user acknowledges that Gaussian, Inc. is engaged in the
 business of creating and licensing software in the field of
 computational chemistry and represents and warrants to the
 licensee that it is not a competitor of Gaussian, Inc. and that
 it will not use this program in any manner prohibited above.
 ---------------------------------------------------------------
  

 Cite this work as:
 Gaussian 16, Revision A.03,
 M. J. Frisch, G. W. Trucks, H. B. Schlegel, G. E. Scuseria, 
 M. A. Robb, J. R. Cheeseman, G. Scalmani, V. Barone, 
 G. A. Petersson, H. Nakatsuji, X. Li, M. Caricato, A. V. Marenich, 
 J. Bloino, B. G. Janesko, R. Gomperts, B. Mennucci, H. P. Hratchian, 
 J. V. Ortiz, A. F. Izmaylov, J. L. Sonnenberg, D. Williams-Young, 
 F. Ding, F. Lipparini, F. Egidi, J. Goings, B. Peng, A. Petrone, 
 T. Henderson, D. Ranasinghe, V. G. Zakrzewski, J. Gao, N. Rega, 
 G. Zheng, W. Liang, M. Hada, M. Ehara, K. Toyota, R. Fukuda, 
 J. Hasegawa, M. Ishida, T. Nakajima, Y. Honda, O. Kitao, H. Nakai, 
 T. Vreven, K. Throssell, J. A. Montgomery, Jr., J. E. Peralta, 
 F. Ogliaro, M. J. Bearpark, J. J. Heyd, E. N. Brothers, K. N. Kudin, 
 V. N. Staroverov, T. A. Keith, R. Kobayashi, J. Normand, 
 K. Raghavachari, A. P. Rendell, J. C. Burant, S. S. Iyengar, 
 J. Tomasi, M. Cossi, J. M. Millam, M. Klene, C. Adamo, R. Cammi, 
 J. W. Ochterski, R. L. Martin, K. Morokuma, O. Farkas, 
 J. B. Foresman, and D. J. Fox, Gaussian, Inc., Wallingford CT, 2016.
 
 ******************************************
 Gaussian 16:  ES64L-G16RevA.03 25-Dec-2016
                22-Nov-2024 
 ******************************************
 %chk=bicycloheptane.chk
 ----------------------------------------------
 #p opt freq hf/6-311++g(d,p) geom=connectivity
 ----------------------------------------------
 1/18=20,19=15,38=1,57=2/1,3;
 2/9=110,12=2,17=6,18=5,40=1/2;
 3/5=4,6=6,7=1111,11=9,25=1,30=1,71=1/1,2,3;
 4//1;
 5/5=2,38=5/2;
 6/7=2,8=2,9=2,10=2,28=1/1;
 7//1,2,3,16;
 1/18=20,19=15/3(2);
 2/9=110/2;
 99//99;
 2/9=110/2;
 3/5=4,6=6,7=1111,11=9,25=1,30=1,71=1/1,2,3;
 4/5=5,16=3,69=1/1;
 5/5=2,38=5/2;
 7//1,2,3,16;
 1/18=20,19=15/3(-5);
 2/9=110/2;
 6/7=2,8=2,9=2,10=2,19=2,28=1/1;
 99/9=1/99;
 Leave Link    1 at Fri Nov 22 12:10:01 2024, MaxMem=           0 cpu:               0.0 elap:               0.0
 (Enter /usr/local/g16/l101.exe)
 -------------------
 Title Card Required
 -------------------
 Symbolic Z-matrix:
 Charge =  0 Multiplicity = 1
 C                    -0.44012   1.00254   0.02625 
 C                     1.10159   1.00254   0.02625 
 C                     0.56048   3.21154   0.02625 
 C                    -0.80669   2.49903   0.02644 
 H                    -0.84852   0.47872  -0.86926 
 H                    -0.83174   0.49465   0.93943 
 H                    -1.41121   2.77498  -0.86885 
 H                    -1.38837   2.76815   0.93995 
 C                     1.40422   2.24745   0.89977 
 H                     2.48343   2.51184   0.92 
 H                     1.01959   2.15325   1.93811 
 C                     1.55726   1.49177  -1.36281 
 H                     2.65715   1.34959  -1.48669 
 H                     1.03754   0.94043  -2.18078 
 C                     1.19053   2.98827  -1.36294 
 H                     2.10002   3.62286  -1.48701 
 H                     0.47472   3.23658  -2.18093 
 H                     1.56187   0.05205   0.35334 
 H                     0.52936   4.26713   0.35347 
 
 ITRead=  0  0  0  0  0  0  0  0  0  0  0  0  0  0  0  0  0  0  0
 MicOpt= -1 -1 -1 -1 -1 -1 -1 -1 -1 -1 -1 -1 -1 -1 -1 -1 -1 -1 -1
 NAtoms=     19 NQM=       19 NQMF=       0 NMMI=      0 NMMIF=      0
                NMic=       0 NMicF=      0.
                    Isotopes and Nuclear Properties:
 (Nuclear quadrupole moments (NQMom) in fm**2, nuclear magnetic moments (NMagM)
  in nuclear magnetons)

  Atom         1           2           3           4           5           6           7           8           9          10
 IAtWgt=          12          12          12          12           1           1           1           1          12           1
 AtmWgt=  12.0000000  12.0000000  12.0000000  12.0000000   1.0078250   1.0078250   1.0078250   1.0078250  12.0000000   1.0078250
 NucSpn=           0           0           0           0           1           1           1           1           0           1
 AtZEff=  -0.0000000  -0.0000000  -0.0000000  -0.0000000  -0.0000000  -0.0000000  -0.0000000  -0.0000000  -0.0000000  -0.0000000
 NQMom=    0.0000000   0.0000000   0.0000000   0.0000000   0.0000000   0.0000000   0.0000000   0.0000000   0.0000000   0.0000000
 NMagM=    0.0000000   0.0000000   0.0000000   0.0000000   2.7928460   2.7928460   2.7928460   2.7928460   0.0000000   2.7928460
 AtZNuc=   6.0000000   6.0000000   6.0000000   6.0000000   1.0000000   1.0000000   1.0000000   1.0000000   6.0000000   1.0000000

  Atom        11          12          13          14          15          16          17          18          19
 IAtWgt=           1          12           1           1          12           1           1           1           1
 AtmWgt=   1.0078250  12.0000000   1.0078250   1.0078250  12.0000000   1.0078250   1.0078250   1.0078250   1.0078250
 NucSpn=           1           0           1           1           0           1           1           1           1
 AtZEff=  -0.0000000  -0.0000000  -0.0000000  -0.0000000  -0.0000000  -0.0000000  -0.0000000  -0.0000000  -0.0000000
 NQMom=    0.0000000   0.0000000   0.0000000   0.0000000   0.0000000   0.0000000   0.0000000   0.0000000   0.0000000
 NMagM=    2.7928460   0.0000000   2.7928460   2.7928460   0.0000000   2.7928460   2.7928460   2.7928460   2.7928460
 AtZNuc=   1.0000000   6.0000000   1.0000000   1.0000000   6.0000000   1.0000000   1.0000000   1.0000000   1.0000000
 Leave Link  101 at Fri Nov 22 12:10:01 2024, MaxMem=   104857600 cpu:               0.1 elap:               0.1
 (Enter /usr/local/g16/l103.exe)

 GradGradGradGradGradGradGradGradGradGradGradGradGradGradGradGradGradGrad
 Berny optimization.
 Initialization pass.
                           ----------------------------
                           !    Initial Parameters    !
                           ! (Angstroms and Degrees)  !
 --------------------------                            --------------------------
 ! Name  Definition              Value          Derivative Info.                !
 --------------------------------------------------------------------------------
 ! R1    R(1,2)                  1.5417         estimate D2E/DX2                !
 ! R2    R(1,4)                  1.5407         estimate D2E/DX2                !
 ! R3    R(1,5)                  1.115          estimate D2E/DX2                !
 ! R4    R(1,6)                  1.1159         estimate D2E/DX2                !
 ! R5    R(2,9)                  1.5506         estimate D2E/DX2                !
 ! R6    R(2,12)                 1.5416         estimate D2E/DX2                !
 ! R7    R(2,18)                 1.1056         estimate D2E/DX2                !
 ! R8    R(3,4)                  1.5417         estimate D2E/DX2                !
 ! R9    R(3,9)                  1.5506         estimate D2E/DX2                !
 ! R10   R(3,15)                 1.5416         estimate D2E/DX2                !
 ! R11   R(3,19)                 1.1056         estimate D2E/DX2                !
 ! R12   R(4,7)                  1.115          estimate D2E/DX2                !
 ! R13   R(4,8)                  1.1159         estimate D2E/DX2                !
 ! R14   R(9,10)                 1.1113         estimate D2E/DX2                !
 ! R15   R(9,11)                 1.1113         estimate D2E/DX2                !
 ! R16   R(12,13)                1.1159         estimate D2E/DX2                !
 ! R17   R(12,14)                1.115          estimate D2E/DX2                !
 ! R18   R(12,15)                1.5408         estimate D2E/DX2                !
 ! R19   R(15,16)                1.1159         estimate D2E/DX2                !
 ! R20   R(15,17)                1.115          estimate D2E/DX2                !
 ! A1    A(2,1,4)              103.7638         estimate D2E/DX2                !
 ! A2    A(2,1,5)              111.4874         estimate D2E/DX2                !
 ! A3    A(2,1,6)              110.5456         estimate D2E/DX2                !
 ! A4    A(4,1,5)              111.6707         estimate D2E/DX2                !
 ! A5    A(4,1,6)              111.0065         estimate D2E/DX2                !
 ! A6    A(5,1,6)              108.3542         estimate D2E/DX2                !
 ! A7    A(1,2,9)              101.2544         estimate D2E/DX2                !
 ! A8    A(1,2,12)             107.1925         estimate D2E/DX2                !
 ! A9    A(1,2,18)             114.6028         estimate D2E/DX2                !
 ! A10   A(9,2,12)             101.252          estimate D2E/DX2                !
 ! A11   A(9,2,18)             116.2518         estimate D2E/DX2                !
 ! A12   A(12,2,18)            114.6054         estimate D2E/DX2                !
 ! A13   A(4,3,9)              101.2515         estimate D2E/DX2                !
 ! A14   A(4,3,15)             107.1935         estimate D2E/DX2                !
 ! A15   A(4,3,19)             114.5989         estimate D2E/DX2                !
 ! A16   A(9,3,15)             101.2561         estimate D2E/DX2                !
 ! A17   A(9,3,19)             116.2461         estimate D2E/DX2                !
 ! A18   A(15,3,19)            114.6129         estimate D2E/DX2                !
 ! A19   A(1,4,3)              103.7629         estimate D2E/DX2                !
 ! A20   A(1,4,7)              111.6717         estimate D2E/DX2                !
 ! A21   A(1,4,8)              110.9991         estimate D2E/DX2                !
 ! A22   A(3,4,7)              111.4896         estimate D2E/DX2                !
 ! A23   A(3,4,8)              110.542          estimate D2E/DX2                !
 ! A24   A(7,4,8)              108.3623         estimate D2E/DX2                !
 ! A25   A(2,9,3)               94.3374         estimate D2E/DX2                !
 ! A26   A(2,9,10)             113.004          estimate D2E/DX2                !
 ! A27   A(2,9,11)             113.0015         estimate D2E/DX2                !
 ! A28   A(3,9,10)             113.0013         estimate D2E/DX2                !
 ! A29   A(3,9,11)             112.9999         estimate D2E/DX2                !
 ! A30   A(10,9,11)            109.8319         estimate D2E/DX2                !
 ! A31   A(2,12,13)            110.5438         estimate D2E/DX2                !
 ! A32   A(2,12,14)            111.4898         estimate D2E/DX2                !
 ! A33   A(2,12,15)            103.7662         estimate D2E/DX2                !
 ! A34   A(13,12,14)           108.3597         estimate D2E/DX2                !
 ! A35   A(13,12,15)           110.9975         estimate D2E/DX2                !
 ! A36   A(14,12,15)           111.6708         estimate D2E/DX2                !
 ! A37   A(3,15,12)            103.7606         estimate D2E/DX2                !
 ! A38   A(3,15,16)            110.5432         estimate D2E/DX2                !
 ! A39   A(3,15,17)            111.4972         estimate D2E/DX2                !
 ! A40   A(12,15,16)           110.9994         estimate D2E/DX2                !
 ! A41   A(12,15,17)           111.6649         estimate D2E/DX2                !
 ! A42   A(16,15,17)           108.3623         estimate D2E/DX2                !
 ! D1    D(4,1,2,9)             35.049          estimate D2E/DX2                !
 ! D2    D(4,1,2,12)           -70.6049         estimate D2E/DX2                !
 ! D3    D(4,1,2,18)           161.0033         estimate D2E/DX2                !
 ! D4    D(5,1,2,9)            155.3814         estimate D2E/DX2                !
 ! D5    D(5,1,2,12)            49.7275         estimate D2E/DX2                !
 ! D6    D(5,1,2,18)           -78.6644         estimate D2E/DX2                !
 ! D7    D(6,1,2,9)            -84.0256         estimate D2E/DX2                !
 ! D8    D(6,1,2,12)           170.3205         estimate D2E/DX2                !
 ! D9    D(6,1,2,18)            41.9286         estimate D2E/DX2                !
 ! D10   D(2,1,4,3)              0.0106         estimate D2E/DX2                !
 ! D11   D(2,1,4,7)            120.2213         estimate D2E/DX2                !
 ! D12   D(2,1,4,8)           -118.7391         estimate D2E/DX2                !
 ! D13   D(5,1,4,3)           -120.1975         estimate D2E/DX2                !
 ! D14   D(5,1,4,7)              0.0132         estimate D2E/DX2                !
 ! D15   D(5,1,4,8)            121.0528         estimate D2E/DX2                !
 ! D16   D(6,1,4,3)            118.7687         estimate D2E/DX2                !
 ! D17   D(6,1,4,7)           -121.0206         estimate D2E/DX2                !
 ! D18   D(6,1,4,8)              0.019          estimate D2E/DX2                !
 ! D19   D(1,2,9,3)            -55.1459         estimate D2E/DX2                !
 ! D20   D(1,2,9,10)          -172.3996         estimate D2E/DX2                !
 ! D21   D(1,2,9,11)            62.1054         estimate D2E/DX2                !
 ! D22   D(12,2,9,3)            55.1503         estimate D2E/DX2                !
 ! D23   D(12,2,9,10)          -62.1033         estimate D2E/DX2                !
 ! D24   D(12,2,9,11)          172.4017         estimate D2E/DX2                !
 ! D25   D(18,2,9,3)          -179.9971         estimate D2E/DX2                !
 ! D26   D(18,2,9,10)           62.7493         estimate D2E/DX2                !
 ! D27   D(18,2,9,11)          -62.7457         estimate D2E/DX2                !
 ! D28   D(1,2,12,13)         -170.345          estimate D2E/DX2                !
 ! D29   D(1,2,12,14)          -49.7445         estimate D2E/DX2                !
 ! D30   D(1,2,12,15)           70.5905         estimate D2E/DX2                !
 ! D31   D(9,2,12,13)           83.9994         estimate D2E/DX2                !
 ! D32   D(9,2,12,14)         -155.4001         estimate D2E/DX2                !
 ! D33   D(9,2,12,15)          -35.0651         estimate D2E/DX2                !
 ! D34   D(18,2,12,13)         -41.9546         estimate D2E/DX2                !
 ! D35   D(18,2,12,14)          78.6459         estimate D2E/DX2                !
 ! D36   D(18,2,12,15)        -161.0191         estimate D2E/DX2                !
 ! D37   D(9,3,4,1)            -35.0663         estimate D2E/DX2                !
 ! D38   D(9,3,4,7)           -155.4003         estimate D2E/DX2                !
 ! D39   D(9,3,4,8)             83.9973         estimate D2E/DX2                !
 ! D40   D(15,3,4,1)            70.5912         estimate D2E/DX2                !
 ! D41   D(15,3,4,7)           -49.7428         estimate D2E/DX2                !
 ! D42   D(15,3,4,8)          -170.3451         estimate D2E/DX2                !
 ! D43   D(19,3,4,1)          -161.0091         estimate D2E/DX2                !
 ! D44   D(19,3,4,7)            78.6569         estimate D2E/DX2                !
 ! D45   D(19,3,4,8)           -41.9454         estimate D2E/DX2                !
 ! D46   D(4,3,9,2)             55.1526         estimate D2E/DX2                !
 ! D47   D(4,3,9,10)           172.4085         estimate D2E/DX2                !
 ! D48   D(4,3,9,11)           -62.1            estimate D2E/DX2                !
 ! D49   D(15,3,9,2)           -55.145          estimate D2E/DX2                !
 ! D50   D(15,3,9,10)           62.1108         estimate D2E/DX2                !
 ! D51   D(15,3,9,11)         -172.3977         estimate D2E/DX2                !
 ! D52   D(19,3,9,2)           179.9933         estimate D2E/DX2                !
 ! D53   D(19,3,9,10)          -62.7509         estimate D2E/DX2                !
 ! D54   D(19,3,9,11)           62.7406         estimate D2E/DX2                !
 ! D55   D(4,3,15,12)          -70.6056         estimate D2E/DX2                !
 ! D56   D(4,3,15,16)          170.331          estimate D2E/DX2                !
 ! D57   D(4,3,15,17)           49.7228         estimate D2E/DX2                !
 ! D58   D(9,3,15,12)           35.0487         estimate D2E/DX2                !
 ! D59   D(9,3,15,16)          -84.0147         estimate D2E/DX2                !
 ! D60   D(9,3,15,17)          155.3771         estimate D2E/DX2                !
 ! D61   D(19,3,15,12)         161.0028         estimate D2E/DX2                !
 ! D62   D(19,3,15,16)          41.9394         estimate D2E/DX2                !
 ! D63   D(19,3,15,17)         -78.6688         estimate D2E/DX2                !
 ! D64   D(2,12,15,3)            0.0101         estimate D2E/DX2                !
 ! D65   D(2,12,15,16)         118.76           estimate D2E/DX2                !
 ! D66   D(2,12,15,17)        -120.2047         estimate D2E/DX2                !
 ! D67   D(13,12,15,3)        -118.7429         estimate D2E/DX2                !
 ! D68   D(13,12,15,16)          0.0071         estimate D2E/DX2                !
 ! D69   D(13,12,15,17)        121.0424         estimate D2E/DX2                !
 ! D70   D(14,12,15,3)         120.2225         estimate D2E/DX2                !
 ! D71   D(14,12,15,16)       -121.0276         estimate D2E/DX2                !
 ! D72   D(14,12,15,17)          0.0077         estimate D2E/DX2                !
 --------------------------------------------------------------------------------
 Trust Radius=3.00D-01 FncErr=1.00D-07 GrdErr=1.00D-07 EigMax=2.50D+02 EigMin=1.00D-04
 Number of steps in this run=    114 maximum allowed number of steps=    114.
 GradGradGradGradGradGradGradGradGradGradGradGradGradGradGradGradGradGrad

 Leave Link  103 at Fri Nov 22 12:10:01 2024, MaxMem=   104857600 cpu:               0.0 elap:               0.0
 (Enter /usr/local/g16/l202.exe)
                          Input orientation:                          
 ---------------------------------------------------------------------
 Center     Atomic      Atomic             Coordinates (Angstroms)
 Number     Number       Type             X           Y           Z
 ---------------------------------------------------------------------
      1          6           0       -0.440115    1.002542    0.026252
      2          6           0        1.101595    1.002542    0.026252
      3          6           0        0.560480    3.211542    0.026252
      4          6           0       -0.806686    2.499031    0.026440
      5          1           0       -0.848519    0.478720   -0.869260
      6          1           0       -0.831741    0.494653    0.939430
      7          1           0       -1.411209    2.774978   -0.868852
      8          1           0       -1.388369    2.768147    0.939951
      9          6           0        1.404221    2.247445    0.899765
     10          1           0        2.483427    2.511839    0.920002
     11          1           0        1.019594    2.153246    1.938114
     12          6           0        1.557259    1.491771   -1.362809
     13          1           0        2.657151    1.349591   -1.486688
     14          1           0        1.037541    0.940428   -2.180782
     15          6           0        1.190535    2.988265   -1.362940
     16          1           0        2.100025    3.622862   -1.487011
     17          1           0        0.474717    3.236580   -2.180930
     18          1           0        1.561871    0.052049    0.353339
     19          1           0        0.529356    4.267126    0.353466
 ---------------------------------------------------------------------
                    Distance matrix (angstroms):
                    1          2          3          4          5
     1  C    0.000000
     2  C    1.541710   0.000000
     3  C    2.425051   2.274310   0.000000
     4  C    1.540732   2.425081   1.541692   0.000000
     5  H    1.114955   2.208908   3.202427   2.210359   0.000000
     6  H    1.115893   2.197643   3.186481   2.202660   1.808838
     7  H    2.210376   3.202643   2.208927   1.114963   2.364196
     8  H    2.202588   3.186240   2.197603   1.115922   2.967517
     9  C    2.390478   1.550610   1.550615   2.390419   3.366404
    10  H    3.409379   2.232986   2.232957   3.409320   4.293821
    11  H    2.666475   2.232949   2.232934   2.666339   3.765001
    12  C    2.481600   1.541579   2.425010   2.921099   2.656620
    13  H    3.464461   2.197541   3.186201   3.950815   3.664609
    14  H    2.656751   2.208837   3.202584   3.271429   2.343179
    15  C    2.920954   2.425049   1.541647   2.481656   3.270975
    16  H    3.950741   3.186362   2.197578   3.464462   4.354441
    17  H    3.271008   3.202429   2.208989   2.656775   3.328246
    18  H    2.240172   1.105566   3.330490   3.421205   2.736197
    19  H    3.421177   3.330471   1.105575   2.240115   4.212555
                    6          7          8          9         10
     6  H    0.000000
     7  H    2.967415   0.000000
     8  H    2.340643   1.808960   0.000000
     9  C    2.841369   3.366444   2.841004   0.000000
    10  H    3.880690   4.293883   3.880322   1.111305   0.000000
    11  H    2.678758   3.764892   2.678193   1.111297   1.818777
    12  C    3.464371   3.271455   3.950767   2.390336   2.666374
    13  H    4.334667   4.354883   4.926166   2.840974   2.678275
    14  H    3.664513   3.329131   4.354833   3.366380   3.764941
    15  C    3.950773   2.656819   3.464463   2.390462   2.666529
    16  H    4.926313   3.664668   4.334694   2.841235   2.678634
    17  H    4.354497   2.343361   3.664753   3.366459   3.765096
    18  H    2.503753   4.212754   4.052804   2.267862   2.687181
    19  H    4.053084   2.736121   2.503712   2.267806   2.687078
                   11         12         13         14         15
    11  H    0.000000
    12  C    3.409212   0.000000
    13  H    3.880299   1.115941   0.000000
    14  H    4.293781   1.114973   1.808955   0.000000
    15  C    3.409316   1.540773   2.202619   2.210409   0.000000
    16  H    3.880539   2.202628   2.340545   2.967430   1.115921
    17  H    4.293836   2.210334   2.967443   2.364125   1.114972
    18  H    2.687118   2.240086   2.503788   2.736039   3.421238
    19  H    2.686993   3.421225   4.052862   4.212788   2.240244
                   16         17         18         19
    16  H    0.000000
    17  H    1.808968   0.000000
    18  H    4.053049   4.212560   0.000000
    19  H    2.503884   2.736453   4.339696   0.000000
 Stoichiometry    C7H12
 Framework group  C1[X(C7H12)]
 Deg. of freedom    51
 Full point group                 C1      NOp   1
 Largest Abelian subgroup         C1      NOp   1
 Largest concise Abelian subgroup C1      NOp   1
                         Standard orientation:                         
 ---------------------------------------------------------------------
 Center     Atomic      Atomic             Coordinates (Angstroms)
 Number     Number       Type             X           Y           Z
 ---------------------------------------------------------------------
      1          6           0        1.240698    0.770519   -0.494664
      2          6           0       -0.000192    1.137149    0.343574
      3          6           0        0.000109   -1.137161    0.343529
      4          6           0        1.241001   -0.770213   -0.494535
      5          1           0        1.171334    1.182140   -1.528531
      6          1           0        2.167154    1.170758   -0.018529
      7          1           0        1.172036   -1.182055   -1.528350
      8          1           0        2.167525   -1.169885   -0.017989
      9          6           0       -0.000075   -0.000024    1.397723
     10          1           0       -0.909470   -0.000189    2.036472
     11          1           0        0.909307    0.000065    2.036475
     12          6           0       -1.240902    0.770235   -0.494566
     13          1           0       -2.167513    1.169892   -0.018131
     14          1           0       -1.171845    1.182122   -1.528367
     15          6           0       -1.240655   -0.770537   -0.494783
     16          1           0       -2.167169   -1.170653   -0.018591
     17          1           0       -1.171325   -1.182003   -1.528734
     18          1           0       -0.000290    2.169850    0.738295
     19          1           0        0.000349   -2.169846    0.738317
 ---------------------------------------------------------------------
 Rotational constants (GHZ):           3.6872807           3.2203534           2.8044618
 Leave Link  202 at Fri Nov 22 12:10:01 2024, MaxMem=   104857600 cpu:               0.0 elap:               0.0
 (Enter /usr/local/g16/l301.exe)
 Standard basis: 6-311++G(d,p) (5D, 7F)
 Ernie: Thresh=  0.10000D-02 Tol=  0.10000D-05 Strict=F.
 There are   245 symmetry adapted cartesian basis functions of A   symmetry.
 There are   238 symmetry adapted basis functions of A   symmetry.
   238 basis functions,   360 primitive gaussians,   245 cartesian basis functions
    27 alpha electrons       27 beta electrons
       nuclear repulsion energy       327.3847070615 Hartrees.
 IExCor=    0 DFT=F Ex=HF Corr=None ExCW=0 ScaHFX=  1.000000
 ScaDFX=  1.000000  1.000000  1.000000  1.000000 ScalE2=  1.000000  1.000000
 IRadAn=      5 IRanWt=     -1 IRanGd=            0 ICorTp=0 IEmpDi=  4
 NAtoms=   19 NActive=   19 NUniq=   19 SFac= 1.00D+00 NAtFMM=   60 NAOKFM=F Big=F
 Integral buffers will be    131072 words long.
 Raffenetti 1 integral format.
 Two-electron integral symmetry is turned on.
 Leave Link  301 at Fri Nov 22 12:10:01 2024, MaxMem=   104857600 cpu:               0.1 elap:               0.0
 (Enter /usr/local/g16/l302.exe)
 NPDir=0 NMtPBC=     1 NCelOv=     1 NCel=       1 NClECP=     1 NCelD=      1
         NCelK=      1 NCelE2=     1 NClLst=     1 CellRange=     0.0.
 One-electron integrals computed using PRISM.
 One-electron integral symmetry used in STVInt
 NBasis=   238 RedAO= T EigKep=  7.02D-06  NBF=   238
 NBsUse=   238 1.00D-06 EigRej= -1.00D+00 NBFU=   238
 Leave Link  302 at Fri Nov 22 12:10:02 2024, MaxMem=   104857600 cpu:               0.1 elap:               0.1
 (Enter /usr/local/g16/l303.exe)
 DipDrv:  MaxL=1.
 Leave Link  303 at Fri Nov 22 12:10:02 2024, MaxMem=   104857600 cpu:               0.0 elap:               0.0
 (Enter /usr/local/g16/l401.exe)
 ExpMin= 3.60D-02 ExpMax= 4.56D+03 ExpMxC= 6.82D+02 IAcc=3 IRadAn=         5 AccDes= 0.00D+00
 Harris functional with IExCor=  205 and IRadAn=       5 diagonalized for initial guess.
 HarFok:  IExCor=  205 AccDes= 0.00D+00 IRadAn=         5 IDoV= 1 UseB2=F ITyADJ=14
 ICtDFT=  3500011 ScaDFX=  1.000000  1.000000  1.000000  1.000000
 FoFCou: FMM=F IPFlag=           0 FMFlag=      100000 FMFlg1=           0
         NFxFlg=           0 DoJE=T BraDBF=F KetDBF=T FulRan=T
         wScrn=  0.000000 ICntrl=       500 IOpCl=  0 I1Cent=   200000004 NGrid=           0
         NMat0=    1 NMatS0=      1 NMatT0=    0 NMatD0=    1 NMtDS0=    0 NMtDT0=    0
 Petite list used in FoFCou.
 Harris En= -272.761871388088    
 JPrj=0 DoOrth=F DoCkMO=F.
 Leave Link  401 at Fri Nov 22 12:10:05 2024, MaxMem=   104857600 cpu:               2.8 elap:               3.3
 (Enter /usr/local/g16/l502.exe)
 Integral symmetry usage will be decided dynamically.
 Closed shell SCF:
 Using DIIS extrapolation, IDIIS=  1040.
 NGot=   104857600 LenX=   104733509 LenY=   104673043
 Requested convergence on RMS density matrix=1.00D-08 within 128 cycles.
 Requested convergence on MAX density matrix=1.00D-06.
 Requested convergence on             energy=1.00D-06.
 No special actions if energy rises.
 Fock matrices will be formed incrementally for  20 cycles.

 Cycle   1  Pass 0  IDiag  1:
 FoFJK:  IHMeth= 1 ICntrl=       0 DoSepK=F KAlg= 0 I1Cent=           0 FoldK=F
 IRaf= 990000000 NMat=       1 IRICut=       1 DoRegI=T DoRafI=F ISym2E= 0 IDoP0=0 IntGTp=1.
 FoFCou: FMM=F IPFlag=           0 FMFlag=      100000 FMFlg1=           0
         NFxFlg=           0 DoJE=F BraDBF=F KetDBF=F FulRan=T
         wScrn=  0.000000 ICntrl=         0 IOpCl=  0 I1Cent=           0 NGrid=           0
         NMat0=    1 NMatS0=      1 NMatT0=    0 NMatD0=    1 NMtDS0=    0 NMtDT0=    0
 Symmetry not used in FoFCou.
 E= -271.691074936680    
 DIIS: error= 5.80D-02 at cycle   1 NSaved=   1.
 NSaved= 1 IEnMin= 1 EnMin= -271.691074936680     IErMin= 1 ErrMin= 5.80D-02
 ErrMax= 5.80D-02  0.00D+00 EMaxC= 1.00D-01 BMatC= 6.78D-01 BMatP= 6.78D-01
 IDIUse=3 WtCom= 4.20D-01 WtEn= 5.80D-01
 Coeff-Com:  0.100D+01
 Coeff-En:   0.100D+01
 Coeff:      0.100D+01
 Gap=     0.458 Goal=   None    Shift=    0.000
 GapD=    0.458 DampG=2.000 DampE=0.500 DampFc=1.0000 IDamp=-1.
 RMSDP=8.69D-03 MaxDP=3.94D-01              OVMax= 1.39D-01

 Cycle   2  Pass 0  IDiag  1:
 RMSU=  6.50D-03    CP:  6.76D-01
 E= -271.984609320395     Delta-E=       -0.293534383716 Rises=F Damp=F
 DIIS: error= 3.55D-02 at cycle   2 NSaved=   2.
 NSaved= 2 IEnMin= 2 EnMin= -271.984609320395     IErMin= 2 ErrMin= 3.55D-02
 ErrMax= 3.55D-02  0.00D+00 EMaxC= 1.00D-01 BMatC= 1.35D-01 BMatP= 6.78D-01
 IDIUse=3 WtCom= 6.45D-01 WtEn= 3.55D-01
 Coeff-Com:  0.252D+00 0.748D+00
 Coeff-En:   0.442D-02 0.996D+00
 Coeff:      0.164D+00 0.836D+00
 Gap=     0.523 Goal=   None    Shift=    0.000
 RMSDP=5.60D-03 MaxDP=2.32D-01 DE=-2.94D-01 OVMax= 8.19D-02

 Cycle   3  Pass 0  IDiag  1:
 RMSU=  3.23D-03    CP:  8.19D-01  4.15D-01
 E= -272.093090688542     Delta-E=       -0.108481368147 Rises=F Damp=F
 DIIS: error= 1.49D-02 at cycle   3 NSaved=   3.
 NSaved= 3 IEnMin= 3 EnMin= -272.093090688542     IErMin= 3 ErrMin= 1.49D-02
 ErrMax= 1.49D-02  0.00D+00 EMaxC= 1.00D-01 BMatC= 2.50D-02 BMatP= 1.35D-01
 IDIUse=3 WtCom= 8.51D-01 WtEn= 1.49D-01
 Coeff-Com: -0.202D-01 0.282D+00 0.738D+00
 Coeff-En:   0.000D+00 0.000D+00 0.100D+01
 Coeff:     -0.172D-01 0.240D+00 0.777D+00
 Gap=     0.449 Goal=   None    Shift=    0.000
 RMSDP=1.12D-03 MaxDP=4.71D-02 DE=-1.08D-01 OVMax= 2.87D-02

 Cycle   4  Pass 0  IDiag  1:
 RMSU=  7.94D-04    CP:  8.11D-01  5.13D-01  8.59D-01
 E= -272.116002203247     Delta-E=       -0.022911514705 Rises=F Damp=F
 DIIS: error= 2.17D-03 at cycle   4 NSaved=   4.
 NSaved= 4 IEnMin= 4 EnMin= -272.116002203247     IErMin= 4 ErrMin= 2.17D-03
 ErrMax= 2.17D-03  0.00D+00 EMaxC= 1.00D-01 BMatC= 3.71D-04 BMatP= 2.50D-02
 IDIUse=3 WtCom= 9.78D-01 WtEn= 2.17D-02
 Coeff-Com: -0.571D-02-0.134D-01 0.807D-01 0.938D+00
 Coeff-En:   0.000D+00 0.000D+00 0.000D+00 0.100D+01
 Coeff:     -0.558D-02-0.131D-01 0.789D-01 0.940D+00
 Gap=     0.450 Goal=   None    Shift=    0.000
 RMSDP=5.35D-04 MaxDP=2.84D-02 DE=-2.29D-02 OVMax= 4.66D-03

 Cycle   5  Pass 0  IDiag  1:
 RMSU=  2.02D-04    CP:  8.28D-01  4.66D-01  9.30D-01  1.11D+00
 E= -272.116441099795     Delta-E=       -0.000438896547 Rises=F Damp=F
 DIIS: error= 2.89D-04 at cycle   5 NSaved=   5.
 NSaved= 5 IEnMin= 5 EnMin= -272.116441099795     IErMin= 5 ErrMin= 2.89D-04
 ErrMax= 2.89D-04  0.00D+00 EMaxC= 1.00D-01 BMatC= 1.72D-05 BMatP= 3.71D-04
 IDIUse=3 WtCom= 9.97D-01 WtEn= 2.89D-03
 Coeff-Com:  0.110D-02-0.196D-01-0.471D-01 0.573D-01 0.101D+01
 Coeff-En:   0.000D+00 0.000D+00 0.000D+00 0.000D+00 0.100D+01
 Coeff:      0.109D-02-0.195D-01-0.470D-01 0.571D-01 0.101D+01
 Gap=     0.450 Goal=   None    Shift=    0.000
 RMSDP=1.73D-04 MaxDP=9.10D-03 DE=-4.39D-04 OVMax= 1.48D-03

 Cycle   6  Pass 0  IDiag  1:
 RMSU=  3.57D-05    CP:  8.34D-01  4.53D-01  9.52D-01  1.19D+00  1.27D+00
 E= -272.116470481345     Delta-E=       -0.000029381550 Rises=F Damp=F
 DIIS: error= 9.44D-05 at cycle   6 NSaved=   6.
 NSaved= 6 IEnMin= 6 EnMin= -272.116470481345     IErMin= 6 ErrMin= 9.44D-05
 ErrMax= 9.44D-05  0.00D+00 EMaxC= 1.00D-01 BMatC= 1.19D-06 BMatP= 1.72D-05
 IDIUse=1 WtCom= 1.00D+00 WtEn= 0.00D+00
 Coeff-Com:  0.658D-03-0.301D-02-0.156D-01-0.696D-01 0.158D+00 0.930D+00
 Coeff:      0.658D-03-0.301D-02-0.156D-01-0.696D-01 0.158D+00 0.930D+00
 Gap=     0.450 Goal=   None    Shift=    0.000
 RMSDP=5.14D-05 MaxDP=2.76D-03 DE=-2.94D-05 OVMax= 4.02D-04

 Cycle   7  Pass 0  IDiag  1:
 RMSU=  7.71D-06    CP:  8.35D-01  4.49D-01  9.55D-01  1.21D+00  1.37D+00
                    CP:  1.03D+00
 E= -272.116472514316     Delta-E=       -0.000002032971 Rises=F Damp=F
 DIIS: error= 1.17D-05 at cycle   7 NSaved=   7.
 NSaved= 7 IEnMin= 7 EnMin= -272.116472514316     IErMin= 7 ErrMin= 1.17D-05
 ErrMax= 1.17D-05  0.00D+00 EMaxC= 1.00D-01 BMatC= 1.92D-08 BMatP= 1.19D-06
 IDIUse=1 WtCom= 1.00D+00 WtEn= 0.00D+00
 Coeff-Com: -0.740D-04 0.682D-03 0.261D-02 0.459D-02-0.416D-01-0.954D-01
 Coeff-Com:  0.113D+01
 Coeff:     -0.740D-04 0.682D-03 0.261D-02 0.459D-02-0.416D-01-0.954D-01
 Coeff:      0.113D+01
 Gap=     0.451 Goal=   None    Shift=    0.000
 RMSDP=8.99D-06 MaxDP=4.62D-04 DE=-2.03D-06 OVMax= 7.29D-05

 Initial convergence to 1.0D-05 achieved.  Increase integral accuracy.
 Cycle   8  Pass 1  IDiag  1:
 E= -272.116472559749     Delta-E=       -0.000000045433 Rises=F Damp=F
 DIIS: error= 3.16D-06 at cycle   1 NSaved=   1.
 NSaved= 1 IEnMin= 1 EnMin= -272.116472559749     IErMin= 1 ErrMin= 3.16D-06
 ErrMax= 3.16D-06  0.00D+00 EMaxC= 1.00D-01 BMatC= 1.23D-09 BMatP= 1.23D-09
 IDIUse=1 WtCom= 1.00D+00 WtEn= 0.00D+00
 Coeff-Com:  0.100D+01
 Coeff:      0.100D+01
 Gap=     0.451 Goal=   None    Shift=    0.000
 RMSDP=8.99D-06 MaxDP=4.62D-04 DE=-4.54D-08 OVMax= 1.28D-05

 Cycle   9  Pass 1  IDiag  1:
 RMSU=  1.15D-06    CP:  1.00D+00
 E= -272.116472561515     Delta-E=       -0.000000001766 Rises=F Damp=F
 DIIS: error= 1.19D-06 at cycle   2 NSaved=   2.
 NSaved= 2 IEnMin= 2 EnMin= -272.116472561515     IErMin= 2 ErrMin= 1.19D-06
 ErrMax= 1.19D-06  0.00D+00 EMaxC= 1.00D-01 BMatC= 2.26D-10 BMatP= 1.23D-09
 IDIUse=1 WtCom= 1.00D+00 WtEn= 0.00D+00
 Coeff-Com:  0.200D+00 0.800D+00
 Coeff:      0.200D+00 0.800D+00
 Gap=     0.451 Goal=   None    Shift=    0.000
 RMSDP=4.17D-07 MaxDP=2.00D-05 DE=-1.77D-09 OVMax= 3.60D-06

 Cycle  10  Pass 1  IDiag  1:
 RMSU=  2.37D-07    CP:  1.00D+00  1.23D+00
 E= -272.116472561799     Delta-E=       -0.000000000284 Rises=F Damp=F
 DIIS: error= 5.14D-07 at cycle   3 NSaved=   3.
 NSaved= 3 IEnMin= 3 EnMin= -272.116472561799     IErMin= 3 ErrMin= 5.14D-07
 ErrMax= 5.14D-07  0.00D+00 EMaxC= 1.00D-01 BMatC= 2.41D-11 BMatP= 2.26D-10
 IDIUse=1 WtCom= 1.00D+00 WtEn= 0.00D+00
 Coeff-Com: -0.154D+00-0.386D-01 0.119D+01
 Coeff:     -0.154D+00-0.386D-01 0.119D+01
 Gap=     0.451 Goal=   None    Shift=    0.000
 RMSDP=3.51D-07 MaxDP=1.79D-05 DE=-2.84D-10 OVMax= 2.49D-06

 Cycle  11  Pass 1  IDiag  1:
 RMSU=  3.82D-08    CP:  1.00D+00  1.47D+00  1.38D+00
 E= -272.116472561849     Delta-E=       -0.000000000050 Rises=F Damp=F
 DIIS: error= 5.79D-08 at cycle   4 NSaved=   4.
 NSaved= 4 IEnMin= 4 EnMin= -272.116472561849     IErMin= 4 ErrMin= 5.79D-08
 ErrMax= 5.79D-08  0.00D+00 EMaxC= 1.00D-01 BMatC= 4.40D-13 BMatP= 2.41D-11
 IDIUse=1 WtCom= 1.00D+00 WtEn= 0.00D+00
 Coeff-Com: -0.273D-01-0.257D-01 0.167D+00 0.886D+00
 Coeff:     -0.273D-01-0.257D-01 0.167D+00 0.886D+00
 Gap=     0.451 Goal=   None    Shift=    0.000
 RMSDP=2.28D-08 MaxDP=1.20D-06 DE=-5.04D-11 OVMax= 2.61D-07

 Cycle  12  Pass 1  IDiag  1:
 RMSU=  8.85D-09    CP:  1.00D+00  1.49D+00  1.39D+00  9.86D-01
 E= -272.116472561848     Delta-E=        0.000000000001 Rises=F Damp=F
 DIIS: error= 1.42D-08 at cycle   5 NSaved=   5.
 NSaved= 5 IEnMin= 4 EnMin= -272.116472561849     IErMin= 5 ErrMin= 1.42D-08
 ErrMax= 1.42D-08  0.00D+00 EMaxC= 1.00D-01 BMatC= 2.73D-14 BMatP= 4.40D-13
 IDIUse=1 WtCom= 1.00D+00 WtEn= 0.00D+00
 Coeff-Com:  0.158D-01 0.875D-02-0.112D+00-0.237D+00 0.132D+01
 Coeff:      0.158D-01 0.875D-02-0.112D+00-0.237D+00 0.132D+01
 Gap=     0.451 Goal=   None    Shift=    0.000
 RMSDP=9.07D-09 MaxDP=3.84D-07 DE= 1.02D-12 OVMax= 9.67D-08

 SCF Done:  E(RHF) =  -272.116472562     A.U. after   12 cycles
            NFock= 12  Conv=0.91D-08     -V/T= 2.0020
 KE= 2.715767237156D+02 PE=-1.287421504169D+03 EE= 4.163436008297D+02
 Leave Link  502 at Fri Nov 22 12:11:20 2024, MaxMem=   104857600 cpu:              75.4 elap:              75.5
 (Enter /usr/local/g16/l601.exe)
 Copying SCF densities to generalized density rwf, IOpCl= 0 IROHF=0.

 **********************************************************************

            Population analysis using the SCF density.

 **********************************************************************

 Orbital symmetries:
       Occupied  (A) (A) (A) (A) (A) (A) (A) (A) (A) (A) (A) (A)
                 (A) (A) (A) (A) (A) (A) (A) (A) (A) (A) (A) (A)
                 (A) (A) (A)
       Virtual   (A) (A) (A) (A) (A) (A) (A) (A) (A) (A) (A) (A)
                 (A) (A) (A) (A) (A) (A) (A) (A) (A) (A) (A) (A)
                 (A) (A) (A) (A) (A) (A) (A) (A) (A) (A) (A) (A)
                 (A) (A) (A) (A) (A) (A) (A) (A) (A) (A) (A) (A)
                 (A) (A) (A) (A) (A) (A) (A) (A) (A) (A) (A) (A)
                 (A) (A) (A) (A) (A) (A) (A) (A) (A) (A) (A) (A)
                 (A) (A) (A) (A) (A) (A) (A) (A) (A) (A) (A) (A)
                 (A) (A) (A) (A) (A) (A) (A) (A) (A) (A) (A) (A)
                 (A) (A) (A) (A) (A) (A) (A) (A) (A) (A) (A) (A)
                 (A) (A) (A) (A) (A) (A) (A) (A) (A) (A) (A) (A)
                 (A) (A) (A) (A) (A) (A) (A) (A) (A) (A) (A) (A)
                 (A) (A) (A) (A) (A) (A) (A) (A) (A) (A) (A) (A)
                 (A) (A) (A) (A) (A) (A) (A) (A) (A) (A) (A) (A)
                 (A) (A) (A) (A) (A) (A) (A) (A) (A) (A) (A) (A)
                 (A) (A) (A) (A) (A) (A) (A) (A) (A) (A) (A) (A)
                 (A) (A) (A) (A) (A) (A) (A) (A) (A) (A) (A) (A)
                 (A) (A) (A) (A) (A) (A) (A) (A) (A) (A) (A) (A)
                 (A) (A) (A) (A) (A) (A) (A)
 The electronic state is 1-A.
 Alpha  occ. eigenvalues --  -11.22221 -11.22218 -11.21794 -11.21781 -11.21774
 Alpha  occ. eigenvalues --  -11.21723 -11.21718  -1.16234  -0.99664  -0.97494
 Alpha  occ. eigenvalues --   -0.93685  -0.81064  -0.75163  -0.71801  -0.67389
 Alpha  occ. eigenvalues --   -0.63190  -0.62610  -0.54291  -0.53785  -0.50246
 Alpha  occ. eigenvalues --   -0.48501  -0.48233  -0.46487  -0.46265  -0.44798
 Alpha  occ. eigenvalues --   -0.42618  -0.41133
 Alpha virt. eigenvalues --    0.03919   0.05050   0.05741   0.05745   0.07414
 Alpha virt. eigenvalues --    0.07646   0.07659   0.07828   0.07978   0.10226
 Alpha virt. eigenvalues --    0.10358   0.10864   0.13649   0.14684   0.15962
 Alpha virt. eigenvalues --    0.16867   0.17654   0.17851   0.18342   0.19167
 Alpha virt. eigenvalues --    0.19657   0.20656   0.20658   0.20937   0.20943
 Alpha virt. eigenvalues --    0.20972   0.21955   0.22050   0.22101   0.22144
 Alpha virt. eigenvalues --    0.22419   0.24954   0.25529   0.25702   0.25743
 Alpha virt. eigenvalues --    0.26061   0.26839   0.28476   0.30867   0.33048
 Alpha virt. eigenvalues --    0.33504   0.37359   0.37750   0.38455   0.38606
 Alpha virt. eigenvalues --    0.39727   0.41481   0.41606   0.42126   0.43448
 Alpha virt. eigenvalues --    0.45090   0.46679   0.46820   0.48178   0.49821
 Alpha virt. eigenvalues --    0.51230   0.51266   0.52184   0.54072   0.55926
 Alpha virt. eigenvalues --    0.60310   0.62255   0.66517   0.66812   0.67302
 Alpha virt. eigenvalues --    0.68723   0.69731   0.70797   0.71306   0.77027
 Alpha virt. eigenvalues --    0.82508   0.86102   0.87626   0.88188   0.88199
 Alpha virt. eigenvalues --    0.88410   0.89194   0.89511   0.91286   0.91761
 Alpha virt. eigenvalues --    0.92699   0.93308   0.94470   0.95082   0.95363
 Alpha virt. eigenvalues --    0.95828   0.96585   0.96882   0.97126   0.97190
 Alpha virt. eigenvalues --    1.03826   1.05102   1.07408   1.10703   1.15795
 Alpha virt. eigenvalues --    1.20222   1.25319   1.28367   1.29847   1.30785
 Alpha virt. eigenvalues --    1.38506   1.46430   1.46553   1.48079   1.59438
 Alpha virt. eigenvalues --    1.59481   1.69626   1.69965   1.71953   1.72948
 Alpha virt. eigenvalues --    1.74875   1.75170   1.79222   1.80410   1.81211
 Alpha virt. eigenvalues --    1.85707   1.87039   1.87222   1.88406   1.90067
 Alpha virt. eigenvalues --    1.92576   1.95371   1.95543   1.97693   1.98519
 Alpha virt. eigenvalues --    1.99589   2.01913   2.03729   2.06247   2.08141
 Alpha virt. eigenvalues --    2.08930   2.09863   2.15629   2.16622   2.17699
 Alpha virt. eigenvalues --    2.17998   2.18071   2.19738   2.20904   2.23740
 Alpha virt. eigenvalues --    2.27191   2.32913   2.38555   2.39157   2.43562
 Alpha virt. eigenvalues --    2.43919   2.47717   2.50097   2.51483   2.56285
 Alpha virt. eigenvalues --    2.57935   2.59259   2.59849   2.65332   2.69017
 Alpha virt. eigenvalues --    2.71916   2.73362   2.79499   2.81569   2.83765
 Alpha virt. eigenvalues --    2.85592   2.85797   2.86600   2.90054   2.95546
 Alpha virt. eigenvalues --    2.99148   3.00575   3.02535   3.04262   3.09619
 Alpha virt. eigenvalues --    3.10730   3.11882   3.13460   3.15875   3.20271
 Alpha virt. eigenvalues --    3.22079   3.24359   3.25403   3.25948   3.32371
 Alpha virt. eigenvalues --    3.33497   3.34269   3.37729   3.39846   3.49432
 Alpha virt. eigenvalues --    3.57443   3.63172   3.63599   3.68477   3.82399
 Alpha virt. eigenvalues --    3.90093   3.99389   4.05443   4.16599   4.35125
 Alpha virt. eigenvalues --    4.36670   4.44148   4.52009   4.55581   4.62515
 Alpha virt. eigenvalues --    4.64576   4.70036   4.76021   4.85799  24.99623
 Alpha virt. eigenvalues --   25.00146  25.07744  25.07863  25.11607  25.14590
 Alpha virt. eigenvalues --   25.22111
          Condensed to atoms (all electrons):
               1          2          3          4          5          6
     1  C    6.398199  -0.239769   0.121882  -0.554693   0.557180   0.495947
     2  C   -0.239769   5.937531  -0.424668   0.121958  -0.047721  -0.081083
     3  C    0.121882  -0.424668   5.937380  -0.239652  -0.006140   0.045868
     4  C   -0.554693   0.121958  -0.239652   6.398166  -0.142993  -0.089103
     5  H    0.557180  -0.047721  -0.006140  -0.142993   0.536851  -0.003690
     6  H    0.495947  -0.081083   0.045868  -0.089103  -0.003690   0.520015
     7  H   -0.142952  -0.006170  -0.047738   0.557151  -0.005425   0.000348
     8  H   -0.089182   0.045889  -0.081085   0.496009   0.000352  -0.001500
     9  C    0.009880  -0.031735  -0.031601   0.009610   0.021457  -0.026550
    10  H    0.011263  -0.047621  -0.047643   0.011250   0.000235  -0.001435
    11  H   -0.005746  -0.047655  -0.047645  -0.005746  -0.002865  -0.005362
    12  C   -0.085587  -0.239801   0.121882   0.162192  -0.073677   0.000590
    13  H    0.000551  -0.081076   0.045894   0.010250  -0.003633   0.000186
    14  H   -0.073647  -0.047741  -0.006167   0.033465  -0.002150  -0.003633
    15  C    0.162140   0.121790  -0.239933  -0.085518   0.033459   0.010242
    16  H    0.010232   0.045864  -0.081054   0.000582   0.000810  -0.000665
    17  H    0.033439  -0.006144  -0.047697  -0.073639   0.001926   0.000808
    18  H   -0.012100   0.376914   0.004963  -0.012519   0.003836  -0.002316
    19  H   -0.012498   0.004972   0.376901  -0.012147  -0.000671   0.000271
               7          8          9         10         11         12
     1  C   -0.142952  -0.089182   0.009880   0.011263  -0.005746  -0.085587
     2  C   -0.006170   0.045889  -0.031735  -0.047621  -0.047655  -0.239801
     3  C   -0.047738  -0.081085  -0.031601  -0.047643  -0.047645   0.121882
     4  C    0.557151   0.496009   0.009610   0.011250  -0.005746   0.162192
     5  H   -0.005425   0.000352   0.021457   0.000235  -0.002865  -0.073677
     6  H    0.000348  -0.001500  -0.026550  -0.001435  -0.005362   0.000590
     7  H    0.536790  -0.003658   0.021450   0.000235  -0.002865   0.033452
     8  H   -0.003658   0.520031  -0.026557  -0.001439  -0.005373   0.010237
     9  C    0.021450  -0.026557   5.983028   0.435055   0.435085   0.009643
    10  H    0.000235  -0.001439   0.435055   0.515965   0.001023  -0.005761
    11  H   -0.002865  -0.005373   0.435085   0.001023   0.515961   0.011268
    12  C    0.033452   0.010237   0.009643  -0.005761   0.011268   6.398300
    13  H    0.000812  -0.000665  -0.026561  -0.005373  -0.001438   0.496045
    14  H    0.001924   0.000813   0.021445  -0.002865   0.000235   0.557188
    15  C   -0.073621   0.000569   0.009954  -0.005738   0.011254  -0.554613
    16  H   -0.003633   0.000186  -0.026556  -0.005365  -0.001436  -0.089110
    17  H   -0.002150  -0.003633   0.021454  -0.002865   0.000236  -0.142958
    18  H   -0.000671   0.000269  -0.004389   0.003010   0.003008  -0.012138
    19  H    0.003830  -0.002315  -0.004400   0.003007   0.003009  -0.012520
              13         14         15         16         17         18
     1  C    0.000551  -0.073647   0.162140   0.010232   0.033439  -0.012100
     2  C   -0.081076  -0.047741   0.121790   0.045864  -0.006144   0.376914
     3  C    0.045894  -0.006167  -0.239933  -0.081054  -0.047697   0.004963
     4  C    0.010250   0.033465  -0.085518   0.000582  -0.073639  -0.012519
     5  H   -0.003633  -0.002150   0.033459   0.000810   0.001926   0.003836
     6  H    0.000186  -0.003633   0.010242  -0.000665   0.000808  -0.002316
     7  H    0.000812   0.001924  -0.073621  -0.003633  -0.002150  -0.000671
     8  H   -0.000665   0.000813   0.000569   0.000186  -0.003633   0.000269
     9  C   -0.026561   0.021445   0.009954  -0.026556   0.021454  -0.004389
    10  H   -0.005373  -0.002865  -0.005738  -0.005365  -0.002865   0.003010
    11  H   -0.001438   0.000235   0.011254  -0.001436   0.000236   0.003008
    12  C    0.496045   0.557188  -0.554613  -0.089110  -0.142958  -0.012138
    13  H    0.520046  -0.003662  -0.089226  -0.001501   0.000352  -0.002316
    14  H   -0.003662   0.536807  -0.142971   0.000349  -0.005425   0.003831
    15  C   -0.089226  -0.142971   6.398429   0.495937   0.557111  -0.012510
    16  H   -0.001501   0.000349   0.495937   0.520014  -0.003672   0.000271
    17  H    0.000352  -0.005425   0.557111  -0.003672   0.536808  -0.000670
    18  H   -0.002316   0.003831  -0.012510   0.000271  -0.000670   0.432273
    19  H    0.000269  -0.000672  -0.012083  -0.002311   0.003835   0.001348
              19
     1  C   -0.012498
     2  C    0.004972
     3  C    0.376901
     4  C   -0.012147
     5  H   -0.000671
     6  H    0.000271
     7  H    0.003830
     8  H   -0.002315
     9  C   -0.004400
    10  H    0.003007
    11  H    0.003009
    12  C   -0.012520
    13  H    0.000269
    14  H   -0.000672
    15  C   -0.012083
    16  H   -0.002311
    17  H    0.003835
    18  H    0.001348
    19  H    0.432274
 Mulliken charges:
               1
     1  C   -0.584541
     2  C    0.646267
     3  C    0.646252
     4  C   -0.584622
     5  H    0.132860
     6  H    0.141063
     7  H    0.132890
     8  H    0.141052
     9  C   -0.799712
    10  H    0.145064
    11  H    0.145055
    12  C   -0.584633
    13  H    0.141048
    14  H    0.132876
    15  C   -0.584671
    16  H    0.141058
    17  H    0.132885
    18  H    0.229908
    19  H    0.229900
 Sum of Mulliken charges =  -0.00000
 Mulliken charges with hydrogens summed into heavy atoms:
               1
     1  C   -0.310618
     2  C    0.876175
     3  C    0.876153
     4  C   -0.310680
     9  C   -0.509594
    12  C   -0.310709
    15  C   -0.310728
 Electronic spatial extent (au):  <R**2>=            641.4397
 Charge=             -0.0000 electrons
 Dipole moment (field-independent basis, Debye):
    X=              0.0001    Y=              0.0000    Z=              0.0944  Tot=              0.0944
 Quadrupole moment (field-independent basis, Debye-Ang):
   XX=            -46.0931   YY=            -46.3424   ZZ=            -45.6559
   XY=              0.0004   XZ=              0.0000   YZ=             -0.0002
 Traceless Quadrupole moment (field-independent basis, Debye-Ang):
   XX=             -0.0626   YY=             -0.3119   ZZ=              0.3745
   XY=              0.0004   XZ=              0.0000   YZ=             -0.0002
 Octapole moment (field-independent basis, Debye-Ang**2):
  XXX=              0.0001  YYY=              0.0015  ZZZ=             -2.7887  XYY=              0.0013
  XXY=              0.0001  XXZ=              3.9038  XZZ=              0.0000  YZZ=             -0.0006
  YYZ=              1.2373  XYZ=              0.0003
 Hexadecapole moment (field-independent basis, Debye-Ang**3):
 XXXX=           -364.6880 YYYY=           -299.9261 ZZZZ=           -236.8479 XXXY=              0.0071
 XXXZ=             -0.0003 YYYX=              0.0000 YYYZ=             -0.0010 ZZZX=              0.0005
 ZZZY=              0.0003 XXYY=           -114.1083 XXZZ=           -101.4714 YYZZ=            -89.5049
 XXYZ=             -0.0005 YYXZ=              0.0000 ZZXY=             -0.0015
 N-N= 3.273847070615D+02 E-N=-1.287421504515D+03  KE= 2.715767237156D+02
 No NMR shielding tensors so no spin-rotation constants.
 Leave Link  601 at Fri Nov 22 12:11:20 2024, MaxMem=   104857600 cpu:               0.1 elap:               0.1
 (Enter /usr/local/g16/l701.exe)
 ... and contract with generalized density number  0.
 Compute integral first derivatives.
 Leave Link  701 at Fri Nov 22 12:11:21 2024, MaxMem=   104857600 cpu:               0.1 elap:               0.1
 (Enter /usr/local/g16/l702.exe)
 L702 exits ... SP integral derivatives will be done elsewhere.
 Leave Link  702 at Fri Nov 22 12:11:21 2024, MaxMem=   104857600 cpu:               0.0 elap:               0.0
 (Enter /usr/local/g16/l703.exe)
 Integral derivatives from FoFJK, PRISM(SPDF).
 Compute integral first derivatives, UseDBF=F ICtDFT=           0.
 Calling FoFJK, ICntrl=      2127 FMM=F ISym2X=0 I1Cent= 0 IOpClX= 0 NMat=1 NMatS=1 NMatT=0.
 FoFJK:  IHMeth= 1 ICntrl=    2127 DoSepK=F KAlg= 0 I1Cent=           0 FoldK=F
 IRaf=         0 NMat=       1 IRICut=       1 DoRegI=T DoRafI=F ISym2E= 0 IDoP0=0 IntGTp=1.
 FoFCou: FMM=F IPFlag=           0 FMFlag=      100000 FMFlg1=         800
         NFxFlg=           0 DoJE=F BraDBF=F KetDBF=F FulRan=T
         wScrn=  0.000000 ICntrl=      2127 IOpCl=  0 I1Cent=           0 NGrid=           0
         NMat0=    1 NMatS0=      1 NMatT0=    0 NMatD0=    1 NMtDS0=    0 NMtDT0=    0
 Symmetry not used in FoFCou.
 Leave Link  703 at Fri Nov 22 12:11:45 2024, MaxMem=   104857600 cpu:              24.0 elap:              24.0
 (Enter /usr/local/g16/l716.exe)
 Dipole        = 2.11603401D-05 1.66953508D-05 3.71566833D-02
 ***** Axes restored to original set *****
 -------------------------------------------------------------------
 Center     Atomic                   Forces (Hartrees/Bohr)
 Number     Number              X              Y              Z
 -------------------------------------------------------------------
      1        6          -0.009219205   -0.023910685    0.002499106
      2        6           0.003711104   -0.001208787    0.004980597
      3        6           0.002720812    0.002794761    0.004975523
      4        6          -0.019228348    0.016927429    0.002525514
      5        1           0.006037618    0.006084596    0.017540691
      6        1           0.005412817    0.007212787   -0.017163924
      7        1           0.008168603   -0.002609162    0.017549055
      8        1           0.008126528   -0.003881372   -0.017191071
      9        6           0.004046923    0.000993772    0.006173156
     10        1          -0.015962210   -0.003915206    0.001694856
     11        1           0.007487512    0.001835265   -0.014608580
     12        6           0.012612263   -0.018543256   -0.012708935
     13        1          -0.019383230    0.001127672    0.000053999
     14        1           0.012098683    0.007577318    0.013336766
     15        6           0.002596681    0.022246508   -0.012670291
     16        1          -0.016657648   -0.009959223    0.000051378
     17        1           0.014225332   -0.001107369    0.013348522
     18        1          -0.006647229    0.012425659   -0.005184692
     19        1          -0.000147006   -0.014090706   -0.005201670
 -------------------------------------------------------------------
 Cartesian Forces:  Max     0.023910685 RMS     0.010935967
 Leave Link  716 at Fri Nov 22 12:11:45 2024, MaxMem=   104857600 cpu:               0.0 elap:               0.0
 (Enter /usr/local/g16/l103.exe)

 GradGradGradGradGradGradGradGradGradGradGradGradGradGradGradGradGradGrad
 Berny optimization.
 FormGI is forming the generalized inverse of G from B-inverse, IUseBI=4.
 Internal  Forces:  Max     0.019254143 RMS     0.005674839
 Search for a local minimum.
 Step number   1 out of a maximum of  114
 All quantities printed in internal units (Hartrees-Bohrs-Radians)
 RMS Force = .56748D-02 SwitMx=.10000D-02 MixMth= 1
 Mixed Optimization -- RFO/linear search
 Second derivative matrix not updated -- first step.
 ITU=  0
     Eigenvalues ---    0.00291   0.00630   0.01527   0.02078   0.02465
     Eigenvalues ---    0.02718   0.03221   0.04007   0.04248   0.04259
     Eigenvalues ---    0.04396   0.05069   0.05198   0.05266   0.05422
     Eigenvalues ---    0.05605   0.05803   0.05865   0.06808   0.06810
     Eigenvalues ---    0.06811   0.06812   0.07172   0.07214   0.07295
     Eigenvalues ---    0.08644   0.09752   0.09986   0.10610   0.12229
     Eigenvalues ---    0.17005   0.22861   0.23623   0.25449   0.26028
     Eigenvalues ---    0.26209   0.28173   0.28379   0.28385   0.31979
     Eigenvalues ---    0.31981   0.31981   0.31984   0.32079   0.32079
     Eigenvalues ---    0.32080   0.32081   0.32462   0.32463   0.33073
     Eigenvalues ---    0.33074
 RFO step:  Lambda=-1.40731038D-02 EMin= 2.91068314D-03
 Linear search not attempted -- first point.
 Iteration  1 RMS(Cart)=  0.02394974 RMS(Int)=  0.00037969
 Iteration  2 RMS(Cart)=  0.00038711 RMS(Int)=  0.00004481
 Iteration  3 RMS(Cart)=  0.00000014 RMS(Int)=  0.00004481
 ITry= 1 IFail=0 DXMaxC= 1.05D-01 DCOld= 1.00D+10 DXMaxT= 3.00D-01 DXLimC= 3.00D+00 Rises=F
 Variable       Old X    -DE/DX   Delta X   Delta X   Delta X     New X
                                 (Linear)    (Quad)   (Total)
    R1        2.91341  -0.00054   0.00000  -0.00126  -0.00128   2.91213
    R2        2.91156   0.00710   0.00000   0.02608   0.02602   2.93758
    R3        2.10696  -0.01916   0.00000  -0.05721  -0.05721   2.04975
    R4        2.10873  -0.01923   0.00000  -0.05758  -0.05758   2.05115
    R5        2.93023  -0.00579   0.00000  -0.02343  -0.02333   2.90690
    R6        2.91316  -0.00048   0.00000  -0.00107  -0.00109   2.91207
    R7        2.08922  -0.01498   0.00000  -0.04346  -0.04346   2.04576
    R8        2.91338  -0.00054   0.00000  -0.00125  -0.00126   2.91211
    R9        2.93024  -0.00579   0.00000  -0.02344  -0.02334   2.90690
   R10        2.91329  -0.00051   0.00000  -0.00118  -0.00119   2.91210
   R11        2.08923  -0.01499   0.00000  -0.04347  -0.04347   2.04576
   R12        2.10697  -0.01917   0.00000  -0.05723  -0.05723   2.04974
   R13        2.10879  -0.01924   0.00000  -0.05764  -0.05764   2.05115
   R14        2.10006  -0.01640   0.00000  -0.04843  -0.04843   2.05164
   R15        2.10005  -0.01640   0.00000  -0.04841  -0.04841   2.05164
   R16        2.10882  -0.01925   0.00000  -0.05767  -0.05767   2.05115
   R17        2.10699  -0.01917   0.00000  -0.05725  -0.05725   2.04975
   R18        2.91164   0.00709   0.00000   0.02605   0.02598   2.93762
   R19        2.10878  -0.01925   0.00000  -0.05764  -0.05764   2.05114
   R20        2.10699  -0.01917   0.00000  -0.05725  -0.05725   2.04974
    A1        1.81102  -0.00186   0.00000  -0.01035  -0.01029   1.80073
    A2        1.94582   0.00057   0.00000   0.00645   0.00645   1.95227
    A3        1.92939   0.00096   0.00000   0.00521   0.00521   1.93460
    A4        1.94902   0.00214   0.00000   0.01895   0.01898   1.96800
    A5        1.93743   0.00035   0.00000   0.00427   0.00422   1.94165
    A6        1.89114  -0.00204   0.00000  -0.02311  -0.02310   1.86804
    A7        1.76722  -0.00004   0.00000   0.00109   0.00095   1.76818
    A8        1.87086   0.00411   0.00000   0.03050   0.03056   1.90142
    A9        2.00020  -0.00194   0.00000  -0.01282  -0.01280   1.98739
   A10        1.76718  -0.00003   0.00000   0.00112   0.00098   1.76816
   A11        2.02898   0.00051   0.00000  -0.00193  -0.00193   2.02704
   A12        2.00024  -0.00194   0.00000  -0.01283  -0.01281   1.98743
   A13        1.76717  -0.00004   0.00000   0.00110   0.00096   1.76814
   A14        1.87088   0.00411   0.00000   0.03050   0.03056   1.90144
   A15        2.00013  -0.00193   0.00000  -0.01276  -0.01274   1.98738
   A16        1.76725  -0.00003   0.00000   0.00108   0.00095   1.76820
   A17        2.02888   0.00051   0.00000  -0.00186  -0.00187   2.02701
   A18        2.00037  -0.00194   0.00000  -0.01292  -0.01291   1.98747
   A19        1.81100  -0.00187   0.00000  -0.01035  -0.01030   1.80071
   A20        1.94904   0.00214   0.00000   0.01895   0.01898   1.96802
   A21        1.93730   0.00036   0.00000   0.00436   0.00432   1.94161
   A22        1.94586   0.00057   0.00000   0.00648   0.00647   1.95234
   A23        1.92932   0.00096   0.00000   0.00520   0.00520   1.93452
   A24        1.89128  -0.00205   0.00000  -0.02321  -0.02319   1.86808
   A25        1.64650   0.00240   0.00000   0.00064   0.00067   1.64717
   A26        1.97229  -0.00035   0.00000   0.00444   0.00442   1.97671
   A27        1.97225  -0.00034   0.00000   0.00452   0.00449   1.97674
   A28        1.97224  -0.00034   0.00000   0.00451   0.00448   1.97673
   A29        1.97222  -0.00034   0.00000   0.00450   0.00447   1.97669
   A30        1.91693  -0.00069   0.00000  -0.01535  -0.01532   1.90160
   A31        1.92935   0.00096   0.00000   0.00521   0.00521   1.93456
   A32        1.94586   0.00057   0.00000   0.00650   0.00649   1.95236
   A33        1.81106  -0.00188   0.00000  -0.01041  -0.01035   1.80071
   A34        1.89123  -0.00205   0.00000  -0.02319  -0.02318   1.86806
   A35        1.93727   0.00036   0.00000   0.00436   0.00432   1.94159
   A36        1.94902   0.00214   0.00000   0.01896   0.01899   1.96801
   A37        1.81096  -0.00185   0.00000  -0.01030  -0.01025   1.80072
   A38        1.92934   0.00096   0.00000   0.00524   0.00524   1.93458
   A39        1.94599   0.00055   0.00000   0.00634   0.00633   1.95232
   A40        1.93731   0.00035   0.00000   0.00434   0.00430   1.94160
   A41        1.94892   0.00215   0.00000   0.01903   0.01906   1.96798
   A42        1.89128  -0.00204   0.00000  -0.02322  -0.02320   1.86808
    D1        0.61172  -0.00017   0.00000   0.00605   0.00600   0.61772
    D2       -1.23229  -0.00133   0.00000  -0.00453  -0.00465  -1.23694
    D3        2.81004  -0.00068   0.00000  -0.00298  -0.00301   2.80702
    D4        2.71192   0.00155   0.00000   0.02574   0.02574   2.73766
    D5        0.86791   0.00040   0.00000   0.01516   0.01510   0.88300
    D6       -1.37295   0.00104   0.00000   0.01671   0.01673  -1.35622
    D7       -1.46652   0.00001   0.00000   0.00434   0.00434  -1.46218
    D8        2.97265  -0.00115   0.00000  -0.00624  -0.00631   2.96635
    D9        0.73179  -0.00051   0.00000  -0.00469  -0.00467   0.72712
   D10        0.00019  -0.00000   0.00000  -0.00004  -0.00004   0.00015
   D11        2.09826   0.00066   0.00000   0.01121   0.01123   2.10949
   D12       -2.07239  -0.00024   0.00000  -0.00237  -0.00236  -2.07475
   D13       -2.09784  -0.00066   0.00000  -0.01125  -0.01128  -2.10912
   D14        0.00023   0.00000   0.00000  -0.00001  -0.00001   0.00022
   D15        2.11277  -0.00089   0.00000  -0.01359  -0.01360   2.09917
   D16        2.07291   0.00024   0.00000   0.00227   0.00226   2.07516
   D17       -2.11221   0.00089   0.00000   0.01352   0.01353  -2.09868
   D18        0.00033  -0.00000   0.00000  -0.00007  -0.00007   0.00027
   D19       -0.96248  -0.00217   0.00000  -0.01647  -0.01650  -0.97897
   D20       -3.00894  -0.00292   0.00000  -0.02324  -0.02327  -3.03221
   D21        1.08394  -0.00141   0.00000  -0.00969  -0.00971   1.07423
   D22        0.96255   0.00217   0.00000   0.01646   0.01648   0.97904
   D23       -1.08391   0.00141   0.00000   0.00969   0.00971  -1.07420
   D24        3.00898   0.00292   0.00000   0.02323   0.02327   3.03225
   D25       -3.14154   0.00000   0.00000  -0.00000  -0.00000  -3.14154
   D26        1.09518  -0.00075   0.00000  -0.00677  -0.00678   1.08841
   D27       -1.09512   0.00075   0.00000   0.00677   0.00678  -1.08833
   D28       -2.97308   0.00116   0.00000   0.00635   0.00642  -2.96666
   D29       -0.86821  -0.00040   0.00000  -0.01511  -0.01505  -0.88326
   D30        1.23204   0.00133   0.00000   0.00457   0.00469   1.23673
   D31        1.46607   0.00000   0.00000  -0.00420  -0.00420   1.46187
   D32       -2.71224  -0.00155   0.00000  -0.02567  -0.02568  -2.73792
   D33       -0.61200   0.00017   0.00000  -0.00599  -0.00593  -0.61794
   D34       -0.73225   0.00051   0.00000   0.00481   0.00479  -0.72745
   D35        1.37263  -0.00104   0.00000  -0.01666  -0.01668   1.35594
   D36       -2.81031   0.00068   0.00000   0.00303   0.00306  -2.80725
   D37       -0.61202   0.00017   0.00000  -0.00599  -0.00594  -0.61796
   D38       -2.71225  -0.00155   0.00000  -0.02569  -0.02570  -2.73795
   D39        1.46603   0.00000   0.00000  -0.00418  -0.00418   1.46185
   D40        1.23205   0.00133   0.00000   0.00455   0.00467   1.23672
   D41       -0.86818  -0.00040   0.00000  -0.01515  -0.01509  -0.88326
   D42       -2.97308   0.00116   0.00000   0.00636   0.00643  -2.96666
   D43       -2.81014   0.00068   0.00000   0.00291   0.00295  -2.80719
   D44        1.37282  -0.00105   0.00000  -0.01678  -0.01681   1.35601
   D45       -0.73209   0.00051   0.00000   0.00472   0.00471  -0.72738
   D46        0.96259   0.00217   0.00000   0.01645   0.01648   0.97907
   D47        3.00910   0.00292   0.00000   0.02317   0.02320   3.03230
   D48       -1.08385   0.00141   0.00000   0.00966   0.00967  -1.07418
   D49       -0.96246  -0.00217   0.00000  -0.01647  -0.01649  -0.97895
   D50        1.08404  -0.00142   0.00000  -0.00975  -0.00977   1.07427
   D51       -3.00891  -0.00292   0.00000  -0.02326  -0.02330  -3.03220
   D52        3.14148   0.00001   0.00000   0.00010   0.00010   3.14158
   D53       -1.09521   0.00076   0.00000   0.00681   0.00682  -1.08838
   D54        1.09503  -0.00075   0.00000  -0.00669  -0.00670   1.08833
   D55       -1.23230  -0.00133   0.00000  -0.00450  -0.00462  -1.23692
   D56        2.97284  -0.00116   0.00000  -0.00633  -0.00640   2.96643
   D57        0.86783   0.00041   0.00000   0.01526   0.01519   0.88302
   D58        0.61171  -0.00017   0.00000   0.00606   0.00600   0.61772
   D59       -1.46633  -0.00000   0.00000   0.00422   0.00422  -1.46211
   D60        2.71184   0.00156   0.00000   0.02581   0.02582   2.73766
   D61        2.81003  -0.00068   0.00000  -0.00296  -0.00299   2.80704
   D62        0.73198  -0.00051   0.00000  -0.00480  -0.00478   0.72720
   D63       -1.37303   0.00105   0.00000   0.01679   0.01682  -1.35621
   D64        0.00018  -0.00000   0.00000  -0.00005  -0.00005   0.00013
   D65        2.07275   0.00024   0.00000   0.00235   0.00234   2.07509
   D66       -2.09797  -0.00065   0.00000  -0.01120  -0.01122  -2.10919
   D67       -2.07245  -0.00024   0.00000  -0.00236  -0.00235  -2.07480
   D68        0.00012   0.00000   0.00000   0.00004   0.00004   0.00016
   D69        2.11259  -0.00089   0.00000  -0.01351  -0.01352   2.09907
   D70        2.09828   0.00065   0.00000   0.01119   0.01122   2.10950
   D71       -2.11233   0.00090   0.00000   0.01360   0.01360  -2.09873
   D72        0.00013   0.00000   0.00000   0.00005   0.00005   0.00018
         Item               Value     Threshold  Converged?
 Maximum Force            0.019254     0.000450     NO 
 RMS     Force            0.005675     0.000300     NO 
 Maximum Displacement     0.104602     0.001800     NO 
 RMS     Displacement     0.023888     0.001200     NO 
 Predicted change in Energy=-7.424865D-03
 Lowest energy point so far.  Saving SCF results.
 GradGradGradGradGradGradGradGradGradGradGradGradGradGradGradGradGradGrad

 Leave Link  103 at Fri Nov 22 12:11:45 2024, MaxMem=   104857600 cpu:               0.0 elap:               0.0
 (Enter /usr/local/g16/l202.exe)
                          Input orientation:                          
 ---------------------------------------------------------------------
 Center     Atomic      Atomic             Coordinates (Angstroms)
 Number     Number       Type             X           Y           Z
 ---------------------------------------------------------------------
      1          6           0       -0.448194    0.993458    0.035206
      2          6           0        1.092638    1.009305    0.015782
      3          6           0        0.555649    3.201390    0.015787
      4          6           0       -0.818054    2.503315    0.035364
      5          1           0       -0.857328    0.461319   -0.816833
      6          1           0       -0.818126    0.497744    0.927144
      7          1           0       -1.427041    2.786243   -0.816462
      8          1           0       -1.374942    2.771766    0.927522
      9          6           0        1.392546    2.244584    0.882035
     10          1           0        2.446697    2.502805    0.910105
     11          1           0        1.024358    2.154422    1.899388
     12          6           0        1.570594    1.487948   -1.368830
     13          1           0        2.641004    1.345304   -1.478455
     14          1           0        1.092893    0.938836   -2.173071
     15          6           0        1.200605    2.997798   -1.368883
     16          1           0        2.083764    3.619169   -1.478697
     17          1           0        0.523025    3.263720   -2.173054
     18          1           0        1.544382    0.079743    0.337965
     19          1           0        0.526656    4.234495    0.337988
 ---------------------------------------------------------------------
                    Distance matrix (angstroms):
                    1          2          3          4          5
     1  C    0.000000
     2  C    1.541035   0.000000
     3  C    2.425498   2.256900   0.000000
     4  C    1.554498   2.425529   1.541023   0.000000
     5  H    1.084681   2.189955   3.193392   2.213036   0.000000
     6  H    1.085420   2.177910   3.166628   2.194900   1.744798
     7  H    2.213044   3.193576   2.189987   1.084676   2.393710
     8  H    2.194874   3.166463   2.177847   1.085420   2.940895
     9  C    2.381336   1.538264   1.538266   2.381291   3.335884
    10  H    3.379936   2.205410   2.205423   3.379907   4.250478
    11  H    2.644130   2.205432   2.205399   2.644011   3.712843
    12  C    2.508254   1.541004   2.425523   2.950994   2.693228
    13  H    3.458049   2.177861   3.166468   3.949395   3.668447
    14  H    2.693403   2.189988   3.193569   3.313080   2.422967
    15  C    2.950827   2.425502   1.541015   2.508267   3.312638
    16  H    3.949313   3.166575   2.177880   3.458043   4.365789
    17  H    3.312667   3.193407   2.189971   2.693291   3.405607
    18  H    2.212893   1.082571   3.290300   3.397995   2.692094
    19  H    3.397989   3.290289   1.082571   2.212874   4.181613
                    6          7          8          9         10
     6  H    0.000000
     7  H    2.940777   0.000000
     8  H    2.341200   1.744822   0.000000
     9  C    2.817899   3.335920   2.817620   0.000000
    10  H    3.831400   4.250555   3.831132   1.085679   0.000000
    11  H    2.661689   3.712735   2.661255   1.085679   1.767229
    12  C    3.458032   3.313080   3.949380   2.381300   2.644056
    13  H    4.297772   4.366181   4.894011   2.817670   2.661350
    14  H    3.668500   3.406373   4.366180   3.335933   3.712783
    15  C    3.949339   2.693408   3.458035   2.381345   2.644154
    16  H    4.894112   3.668525   4.297748   2.817858   2.661647
    17  H    4.365837   2.423032   3.668497   3.335907   3.712866
    18  H    2.470485   4.181770   4.014600   2.237320   2.648159
    19  H    4.014828   2.692048   2.470466   2.237297   2.648136
                   11         12         13         14         15
    11  H    0.000000
    12  C    3.379912   0.000000
    13  H    3.831193   1.085423   0.000000
    14  H    4.250562   1.084679   1.744808   0.000000
    15  C    3.379932   1.554522   2.194879   2.213063   0.000000
    16  H    3.831356   2.194884   2.341149   2.940777   1.085418
    17  H    4.250489   2.213039   2.940854   2.393708   1.084675
    18  H    2.648162   2.212889   2.470548   2.692060   3.398022
    19  H    2.648090   3.398022   4.014643   4.181796   2.212925
                   16         17         18         19
    16  H    0.000000
    17  H    1.744816   0.000000
    18  H    4.014814   4.181638   0.000000
    19  H    2.470538   2.692165   4.277584   0.000000
 Stoichiometry    C7H12
 Framework group  C1[X(C7H12)]
 Deg. of freedom    51
 Full point group                 C1      NOp   1
 RotChk:  IX=0 Diff= 5.79D-05
 Largest Abelian subgroup         C1      NOp   1
 Largest concise Abelian subgroup C1      NOp   1
                         Standard orientation:                         
 ---------------------------------------------------------------------
 Center     Atomic      Atomic             Coordinates (Angstroms)
 Number     Number       Type             X           Y           Z
 ---------------------------------------------------------------------
      1          6           0        1.253977    0.777418   -0.489238
      2          6           0       -0.000168    1.128444    0.334589
      3          6           0        0.000154   -1.128456    0.334541
      4          6           0        1.254282   -0.777080   -0.489140
      5          1           0        1.211133    1.196946   -1.488585
      6          1           0        2.148702    1.170993   -0.017323
      7          1           0        1.211826   -1.196764   -1.488432
      8          1           0        2.149047   -1.170208   -0.016931
      9          6           0        0.000014   -0.000027    1.379964
     10          1           0       -0.883587   -0.000155    2.010795
     11          1           0        0.883642    0.000052    2.010757
     12          6           0       -1.254277    0.777108   -0.489102
     13          1           0       -2.149070    1.170204   -0.016912
     14          1           0       -1.211834    1.196820   -1.488386
     15          6           0       -1.253985   -0.777414   -0.489250
     16          1           0       -2.148700   -1.170946   -0.017285
     17          1           0       -1.211206   -1.196888   -1.488615
     18          1           0       -0.000255    2.138785    0.723393
     19          1           0        0.000321   -2.138799    0.723343
 ---------------------------------------------------------------------
 Rotational constants (GHZ):           3.7369740           3.2238793           2.7816819
 Leave Link  202 at Fri Nov 22 12:11:45 2024, MaxMem=   104857600 cpu:               0.0 elap:               0.0
 (Enter /usr/local/g16/l301.exe)
 Standard basis: 6-311++G(d,p) (5D, 7F)
 Ernie: Thresh=  0.10000D-02 Tol=  0.10000D-05 Strict=F.
 There are   245 symmetry adapted cartesian basis functions of A   symmetry.
 There are   238 symmetry adapted basis functions of A   symmetry.
   238 basis functions,   360 primitive gaussians,   245 cartesian basis functions
    27 alpha electrons       27 beta electrons
       nuclear repulsion energy       328.6842768292 Hartrees.
 IExCor=    0 DFT=F Ex=HF Corr=None ExCW=0 ScaHFX=  1.000000
 ScaDFX=  1.000000  1.000000  1.000000  1.000000 ScalE2=  1.000000  1.000000
 IRadAn=      5 IRanWt=     -1 IRanGd=            0 ICorTp=0 IEmpDi=  4
 NAtoms=   19 NActive=   19 NUniq=   19 SFac= 1.00D+00 NAtFMM=   60 NAOKFM=F Big=F
 Integral buffers will be    131072 words long.
 Raffenetti 1 integral format.
 Two-electron integral symmetry is turned on.
 Leave Link  301 at Fri Nov 22 12:11:45 2024, MaxMem=   104857600 cpu:               0.0 elap:               0.0
 (Enter /usr/local/g16/l302.exe)
 NPDir=0 NMtPBC=     1 NCelOv=     1 NCel=       1 NClECP=     1 NCelD=      1
         NCelK=      1 NCelE2=     1 NClLst=     1 CellRange=     0.0.
 One-electron integrals computed using PRISM.
 One-electron integral symmetry used in STVInt
 NBasis=   238 RedAO= T EigKep=  7.09D-06  NBF=   238
 NBsUse=   238 1.00D-06 EigRej= -1.00D+00 NBFU=   238
 Leave Link  302 at Fri Nov 22 12:11:45 2024, MaxMem=   104857600 cpu:               0.1 elap:               0.1
 (Enter /usr/local/g16/l303.exe)
 DipDrv:  MaxL=1.
 Leave Link  303 at Fri Nov 22 12:11:45 2024, MaxMem=   104857600 cpu:               0.0 elap:               0.0
 (Enter /usr/local/g16/l401.exe)
 Initial guess from the checkpoint file:  "bicycloheptane.chk"
 B after Tr=    -0.000000    0.000000    0.000000
         Rot=    1.000000    0.000001   -0.000022   -0.000003 Ang=   0.00 deg.
 Guess basis will be translated and rotated to current coordinates.
 JPrj=2 DoOrth=T DoCkMO=T.
 Generating alternative initial guess.
 ExpMin= 3.60D-02 ExpMax= 4.56D+03 ExpMxC= 6.82D+02 IAcc=3 IRadAn=         5 AccDes= 0.00D+00
 Harris functional with IExCor=  205 and IRadAn=       5 diagonalized for initial guess.
 HarFok:  IExCor=  205 AccDes= 0.00D+00 IRadAn=         5 IDoV= 1 UseB2=F ITyADJ=14
 ICtDFT=  3500011 ScaDFX=  1.000000  1.000000  1.000000  1.000000
 FoFCou: FMM=F IPFlag=           0 FMFlag=      100000 FMFlg1=           0
         NFxFlg=           0 DoJE=T BraDBF=F KetDBF=T FulRan=T
         wScrn=  0.000000 ICntrl=       500 IOpCl=  0 I1Cent=   200000004 NGrid=           0
         NMat0=    1 NMatS0=      1 NMatT0=    0 NMatD0=    1 NMtDS0=    0 NMtDT0=    0
 Petite list used in FoFCou.
 Harris En= -272.784269917802    
 Leave Link  401 at Fri Nov 22 12:11:48 2024, MaxMem=   104857600 cpu:               2.9 elap:               2.9
 (Enter /usr/local/g16/l502.exe)
 Integral symmetry usage will be decided dynamically.
 Closed shell SCF:
 Using DIIS extrapolation, IDIIS=  1040.
 NGot=   104857600 LenX=   104733509 LenY=   104673043
 Requested convergence on RMS density matrix=1.00D-08 within 128 cycles.
 Requested convergence on MAX density matrix=1.00D-06.
 Requested convergence on             energy=1.00D-06.
 No special actions if energy rises.
 Fock matrices will be formed incrementally for  20 cycles.

 Cycle   1  Pass 0  IDiag  1:
 FoFJK:  IHMeth= 1 ICntrl=       0 DoSepK=F KAlg= 0 I1Cent=           0 FoldK=F
 IRaf= 990000000 NMat=       1 IRICut=       1 DoRegI=T DoRafI=F ISym2E= 0 IDoP0=0 IntGTp=1.
 FoFCou: FMM=F IPFlag=           0 FMFlag=      100000 FMFlg1=           0
         NFxFlg=           0 DoJE=F BraDBF=F KetDBF=F FulRan=T
         wScrn=  0.000000 ICntrl=         0 IOpCl=  0 I1Cent=           0 NGrid=           0
         NMat0=    1 NMatS0=      1 NMatT0=    0 NMatD0=    1 NMtDS0=    0 NMtDT0=    0
 Symmetry not used in FoFCou.
 E= -272.120715196599    
 DIIS: error= 3.37D-03 at cycle   1 NSaved=   1.
 NSaved= 1 IEnMin= 1 EnMin= -272.120715196599     IErMin= 1 ErrMin= 3.37D-03
 ErrMax= 3.37D-03  0.00D+00 EMaxC= 1.00D-01 BMatC= 2.41D-03 BMatP= 2.41D-03
 IDIUse=3 WtCom= 9.66D-01 WtEn= 3.37D-02
 Coeff-Com:  0.100D+01
 Coeff-En:   0.100D+01
 Coeff:      0.100D+01
 Gap=     0.716 Goal=   None    Shift=    0.000
 GapD=    0.716 DampG=2.000 DampE=1.000 DampFc=2.0000 IDamp=-1.
 RMSDP=9.02D-04 MaxDP=4.70D-02              OVMax= 1.01D-02

 Cycle   2  Pass 0  IDiag  1:
 RMSU=  8.19D-04    CP:  9.75D-01
 E= -272.123277679082     Delta-E=       -0.002562482483 Rises=F Damp=F
 DIIS: error= 7.65D-04 at cycle   2 NSaved=   2.
 NSaved= 2 IEnMin= 2 EnMin= -272.123277679082     IErMin= 2 ErrMin= 7.65D-04
 ErrMax= 7.65D-04  0.00D+00 EMaxC= 1.00D-01 BMatC= 1.19D-04 BMatP= 2.41D-03
 IDIUse=3 WtCom= 9.92D-01 WtEn= 7.65D-03
 Coeff-Com: -0.588D-01 0.106D+01
 Coeff-En:   0.000D+00 0.100D+01
 Coeff:     -0.583D-01 0.106D+01
 Gap=     0.455 Goal=   None    Shift=    0.000
 RMSDP=2.09D-04 MaxDP=8.45D-03 DE=-2.56D-03 OVMax= 3.27D-03

 Cycle   3  Pass 0  IDiag  1:
 RMSU=  1.73D-04    CP:  9.72D-01  1.13D+00
 E= -272.123425818125     Delta-E=       -0.000148139044 Rises=F Damp=F
 DIIS: error= 3.97D-04 at cycle   3 NSaved=   3.
 NSaved= 3 IEnMin= 3 EnMin= -272.123425818125     IErMin= 3 ErrMin= 3.97D-04
 ErrMax= 3.97D-04  0.00D+00 EMaxC= 1.00D-01 BMatC= 2.08D-05 BMatP= 1.19D-04
 IDIUse=3 WtCom= 9.96D-01 WtEn= 3.97D-03
 Coeff-Com: -0.462D-01 0.237D+00 0.809D+00
 Coeff-En:   0.000D+00 0.000D+00 0.100D+01
 Coeff:     -0.460D-01 0.236D+00 0.810D+00
 Gap=     0.457 Goal=   None    Shift=    0.000
 RMSDP=4.35D-05 MaxDP=1.19D-03 DE=-1.48D-04 OVMax= 1.15D-03

 Cycle   4  Pass 0  IDiag  1:
 RMSU=  4.10D-05    CP:  9.73D-01  1.14D+00  1.07D+00
 E= -272.123449758044     Delta-E=       -0.000023939918 Rises=F Damp=F
 DIIS: error= 1.53D-04 at cycle   4 NSaved=   4.
 NSaved= 4 IEnMin= 4 EnMin= -272.123449758044     IErMin= 4 ErrMin= 1.53D-04
 ErrMax= 1.53D-04  0.00D+00 EMaxC= 1.00D-01 BMatC= 1.83D-06 BMatP= 2.08D-05
 IDIUse=3 WtCom= 9.98D-01 WtEn= 1.53D-03
 Coeff-Com: -0.249D-02-0.587D-01 0.137D+00 0.924D+00
 Coeff-En:   0.000D+00 0.000D+00 0.000D+00 0.100D+01
 Coeff:     -0.249D-02-0.586D-01 0.137D+00 0.925D+00
 Gap=     0.457 Goal=   None    Shift=    0.000
 RMSDP=3.71D-05 MaxDP=1.40D-03 DE=-2.39D-05 OVMax= 4.66D-04

 Cycle   5  Pass 0  IDiag  1:
 RMSU=  1.75D-05    CP:  9.72D-01  1.15D+00  1.23D+00  1.28D+00
 E= -272.123452524989     Delta-E=       -0.000002766945 Rises=F Damp=F
[...]
 506,0.02405618,-0.17574912,0.00468249,0.01647984,-0.01032248,0.0028933
 6,-0.04516586,-0.11064729,-0.00348384,-0.06491473,0.46925006,0.0028873
 4,-0.00378141,-0.09302543,-0.00306155,-0.00285395,0.00033556,0.0031150
 9,-0.00145064,-0.09154160,0.00816429,-0.00510630,0.67317854,-0.0944239
 1,-0.04975720,-0.07917146,-0.01038290,-0.01952191,-0.02898919,-0.00073
 462,0.00147943,-0.00006889,0.00314439,0.00583742,0.00964591,0.10101784
 ,-0.04981996,-0.12158762,-0.10388766,0.00043639,0.00125270,0.00232130,
 0.00094642,-0.00347795,-0.00083583,-0.01224791,-0.01194388,-0.02654332
 ,0.05460917,0.12890247,-0.08259782,-0.10690796,-0.23338475,0.00176311,
 0.00094588,0.00071495,0.00022827,0.00081454,-0.00000745,0.00172055,0.0
 0307411,0.00209560,0.08936586,0.11508891,0.24952288,-0.08896669,-0.043
 73148,0.07402919,-0.00973977,-0.01712570,0.03424748,-0.00066062,0.0008
 3017,-0.00052808,0.00379858,0.00609731,-0.00996343,0.00604698,0.007356
 95,-0.01187596,0.09354984,-0.04350641,-0.11017697,0.10035091,0.0014184
 4,0.00091427,-0.00264482,0.00250001,-0.00389380,-0.00029751,-0.0110857
 4,-0.01491862,0.02788170,0.00701765,0.00932581,-0.01437394,0.04374022,
 0.11908793,0.07617343,0.10220030,-0.24968632,-0.00140878,-0.00107779,0
 .00023500,-0.00024346,-0.00036170,0.00039895,-0.00099703,-0.00320866,0
 .00129081,0.01000579,0.01278982,-0.02454050,-0.08515449,-0.10984927,0.
 26646652,-0.00270658,-0.00102242,-0.00371464,-0.00032644,0.00016330,-0
 .00044740,-0.01572007,0.01067693,-0.02463251,-0.14105402,0.03962623,-0
 .11822808,0.00118650,0.00019447,0.00038822,-0.00027119,0.00010063,0.00
 016198,0.15175400,0.01706405,-0.00609395,0.02799454,0.00069631,-0.0038
 8661,0.00070921,-0.00928347,0.00659040,-0.01545696,0.03968924,-0.07497
 621,0.05553743,-0.00080690,0.00236156,-0.00045670,0.00179891,-0.004444
 45,0.00021569,-0.04271544,0.07818559,0.00294780,-0.00193128,0.00209694
 ,0.00057908,-0.00061711,-0.00000744,0.00200103,-0.00002411,0.00071512,
 -0.12266242,0.05663198,-0.23336735,0.00013314,0.00058441,0.00182734,-0
 .00012344,0.00009295,0.00088184,0.13244584,-0.06075850,0.24950393,-0.0
 0224456,0.00050837,0.00405208,0.00001365,0.00120641,-0.00060572,-0.013
 90143,0.00940167,0.02914865,-0.12924222,0.03377942,0.11202399,-0.00038
 413,0.00031742,-0.00006646,0.00156283,0.00020566,-0.00032751,0.0126391
 0,-0.00562932,-0.01717711,0.13484891,0.01769016,-0.00887443,-0.0293314
 5,-0.00046346,-0.00456753,0.00001949,-0.00914037,0.00507528,0.01817540
 ,0.03355424,-0.06988380,-0.05476350,0.00201592,-0.00433184,-0.00013973
 ,-0.00064755,0.00241051,-0.00000183,-0.00529104,0.00273350,0.00725889,
 -0.03550876,0.07777071,-0.00236596,0.00238386,0.00128929,-0.00038302,0
 .00020783,0.00039896,-0.00174706,0.00030428,0.00023429,0.11478059,-0.0
 5541235,-0.24970164,0.00024343,-0.00011664,0.00088195,-0.00029129,-0.0
 0014981,0.00243211,0.01478229,-0.00671514,-0.02454029,-0.12627966,0.05
 804396,0.26648355,-0.02322395,-0.02734679,-0.03051971,-0.09020844,-0.0
 1312550,-0.00787537,-0.11722841,0.03097074,-0.03119014,-0.03678094,0.0
 1199123,-0.03196876,-0.00861130,0.00051837,0.00007432,0.00125659,-0.00
 003213,0.00004811,-0.00653533,-0.00379136,0.00050990,0.00131969,0.0006
 4498,0.00010203,0.67134424,-0.01401647,-0.00731651,-0.01061269,-0.0208
 6811,-0.15146381,-0.05237413,0.03871378,-0.12444566,0.04280277,-0.0013
 3994,0.00623878,-0.00469494,0.00019169,-0.00025622,0.00096066,0.000765
 74,0.00014405,0.00012890,-0.00346452,-0.00233219,-0.00081753,-0.000153
 08,0.00008113,-0.00009208,0.06157600,0.43506842,-0.00684331,-0.0021801
 5,-0.00054133,-0.01060223,-0.04124213,-0.11771570,-0.02846333,0.031670
 96,-0.11771290,-0.00707609,-0.00122956,-0.00054091,0.00080226,0.000306
 75,0.00036958,0.00101763,0.00094834,0.00016518,0.00085327,0.00009876,0
 .00036947,0.00134082,-0.00037062,0.00016507,-0.02516099,-0.00616588,0.
 66558356,0.00053562,0.00017255,-0.00086108,-0.00259254,0.00096148,0.00
 118294,-0.01511702,-0.00720969,0.00201923,-0.00104248,0.00203089,-0.00
 329851,-0.00028410,-0.00015397,-0.00012379,0.00005927,0.00002179,0.000
 12175,-0.00123216,-0.00059188,-0.00018877,0.00019711,0.00005379,0.0001
 4883,-0.31574031,-0.06360425,-0.00541617,0.34311212,-0.00099652,-0.005
 26945,-0.00548439,-0.03123876,-0.00312975,0.00209909,0.02499096,0.0093
 9514,-0.00131477,0.00320005,-0.00369174,0.00446531,-0.00241076,0.00019
 873,-0.00017093,0.00031811,0.00005204,0.00008846,0.00166497,0.00114683
 ,0.00009436,-0.00024254,-0.00008577,-0.00002215,-0.06360418,-0.0716830
 4,-0.00132664,0.07073722,0.07168449,-0.00150547,-0.00171466,-0.0025027
 9,-0.01648059,-0.00043602,-0.00003700,-0.01481541,-0.00723061,-0.00003
 707,-0.00212742,0.00082465,-0.00250267,-0.00113679,-0.00024333,0.00030
 921,-0.00035743,-0.00028543,0.00026789,-0.00112050,-0.00030964,0.00030
 926,-0.00044889,0.00008791,0.00026798,-0.00080465,-0.00019698,-0.06220
 527,0.00583801,0.00143018,0.06098882,0.00055353,-0.00012450,-0.0006906
 9,0.00018653,0.00138361,-0.00407948,0.00711464,-0.00150452,-0.01685677
 ,0.00111550,0.00014914,-0.00042571,0.00012874,0.00018085,0.00008962,0.
 00014727,-0.00027235,-0.00029783,0.00027887,0.00003863,0.00022167,-0.0
 0023224,0.00019973,-0.00015700,-0.09513511,-0.00956331,0.09057195,-0.0
 1061825,-0.00260117,0.03298073,0.09604090,0.00122743,0.00106849,0.0004
 0449,0.01178742,0.00734764,-0.02864334,-0.01190862,0.00041876,0.023515
 04,-0.00120302,0.00050646,-0.00067784,0.00032665,-0.00014227,0.0003076
 7,-0.00052830,-0.00009280,0.00023190,-0.00010715,-0.00029238,-0.000231
 45,0.00045566,0.00028669,-0.00034336,-0.00956326,-0.05844488,0.0221906
 7,-0.00260075,-0.00063903,0.00807935,0.01021283,0.05685800,0.00090081,
 0.00047299,0.00016046,0.00590723,0.00522862,-0.01329308,0.00765461,-0.
 00190585,-0.01329258,0.00101756,-0.00000310,0.00016038,-0.00006032,-0.
 00009906,0.00043762,-0.00071405,-0.00050102,0.00042142,-0.00009930,0.0
 0005995,0.00043767,-0.00086479,0.00011426,0.00042155,0.08596038,0.0210
 6103,-0.29604854,0.00048100,0.00011780,0.00260482,-0.09650110,-0.02364
 357,0.32288632,-0.01755230,-0.01227635,0.03934027,-0.10465360,-0.00701
 089,0.02825134,-0.00371408,0.01942481,0.00286312,0.00092315,-0.0002276
 7,-0.00055335,0.00233917,-0.00040231,0.00119485,-0.00837050,0.00081646
 ,0.00087804,-0.00005588,0.00022588,0.00004146,0.00066207,-0.00025810,-
 0.00038117,0.00652359,0.00142883,-0.01062893,0.00008274,-0.00013432,-0
 .00084857,0.00009541,-0.00270932,-0.00202047,0.65678648,-0.00397753,0.
 00164388,0.00252991,-0.00761869,-0.09821018,0.03353621,0.00706735,-0.0
 1745132,-0.01524333,0.00020959,0.00071764,0.00023624,-0.00012386,0.000
 03699,0.00053951,0.00029277,0.00073361,-0.00085544,0.00025680,0.000100
 54,0.00001562,-0.00063102,-0.00018355,0.00030003,0.00877641,0.00353124
 ,-0.02316475,0.00008089,0.00081349,-0.00017866,0.00039336,-0.00560865,
 -0.00206946,0.01055453,0.50272879,0.00660186,0.00028162,-0.00199905,0.
 03218688,0.02582705,-0.17291750,0.00784245,-0.03019036,-0.00664123,-0.
 00034748,-0.00037969,0.00054160,-0.00244511,-0.00057807,0.00069678,-0.
 00189854,-0.00048859,0.00032659,-0.00016300,0.00040138,-0.00005670,-0.
 00056043,0.00023317,-0.00003330,0.01094001,-0.00613027,-0.04113744,0.0
 0034273,0.00152456,0.00088613,-0.00116017,-0.00444134,-0.00172361,0.02
 241398,0.09168321,0.58153645,0.00036827,-0.00173638,0.00284476,-0.0097
 2088,0.00113403,-0.00150238,0.00058024,0.00100713,-0.00036240,0.000548
 71,-0.00052685,-0.00038939,0.00052110,0.00018132,0.00009915,-0.0009306
 6,0.00029886,0.00031732,0.00008380,0.00000004,-0.00002534,0.00002140,0
 .00006301,0.00005907,-0.00026472,-0.00014290,-0.00048995,0.00061712,0.
 00060097,0.00016377,0.00037897,0.00004111,0.00023337,-0.32770308,0.033
 05240,0.02484429,0.35290646,-0.00098828,-0.00073004,0.00341767,-0.0150
 7067,0.00134662,0.00006914,0.00050443,-0.00441327,0.00134262,-0.000366
 97,-0.00017790,0.00015146,0.00046133,0.00012010,0.00022307,-0.00104817
 ,0.00025457,0.00045731,-0.00010935,0.00007348,-0.00001807,0.00001776,0
 .00014694,-0.00006510,0.00067937,0.00018711,-0.00017518,-0.00006314,0.
 00020693,-0.00035147,-0.00007939,-0.00005982,-0.00001584,0.03177527,-0
 .05858916,-0.00474374,-0.03426806,0.06529427,0.00051619,0.00195630,-0.
 00694854,0.03497826,-0.00485994,-0.00021736,-0.00023590,-0.00027133,-0
 .00032191,-0.00065428,0.00043421,0.00007440,-0.00008745,0.00035665,0.0
 0034620,0.00234803,0.00001785,0.00005033,0.00010524,-0.00019391,0.0000
 3321,-0.00006949,-0.00002763,0.00003422,0.00048836,0.00060952,0.001643
 48,-0.00039615,-0.00049757,-0.00034805,-0.00039262,0.00020960,0.000060
 15,0.02232926,-0.00508072,-0.06253588,-0.02757351,0.00271194,0.0609026
 8,0.00106842,0.00064711,0.00114747,0.00432496,0.00617661,0.00860807,-0
 .00022947,0.00131472,0.00052366,0.00001735,0.00010333,0.00009437,0.000
 03047,-0.00012370,0.00032071,0.00023006,0.00011283,-0.00002043,-0.0000
 6043,0.00004119,0.00003020,-0.00000811,-0.00005502,-0.00005818,-0.0010
 0699,0.00004411,0.00240097,0.00033242,0.00031092,0.00020220,0.00045990
 ,0.00060273,0.00038671,-0.11596172,-0.06392553,-0.09462698,-0.01615790
 ,-0.01831382,-0.02819996,0.12122151,0.00054747,0.00053468,-0.00057506,
 0.00675439,0.00821380,0.00964375,0.00009197,-0.00375841,-0.00001013,-0
 .00030094,-0.00007050,-0.00036578,0.00022155,0.00029728,0.00011857,0.0
 0037892,0.00010061,0.00018604,0.00015047,-0.00008203,0.00003503,0.0001
 7308,0.00013469,0.00006408,-0.00082776,-0.00107853,0.00293057,0.000031
 91,-0.00019483,0.00010356,-0.00008124,0.00091018,0.00020610,-0.0619369
 6,-0.12674000,-0.10292307,0.00120610,0.00294573,0.00392309,0.06818570,
 0.13434809,-0.00262542,-0.00114908,0.00146976,-0.01491001,-0.01850764,
 -0.02095324,-0.00039195,0.00086358,-0.00023260,-0.00004014,-0.00026558
 ,0.00004111,0.00153127,0.00065525,0.00086605,-0.00021187,0.00033964,0.
 00065669,0.00018935,-0.00009253,0.00006293,0.00001815,0.00010969,0.000
 06392,0.00293700,0.00306033,-0.00641252,-0.00009736,0.00030753,0.00028
 656,-0.00007233,-0.00212759,-0.00114616,-0.09052238,-0.10267140,-0.206
 69605,0.00067632,0.00253573,0.00404454,0.10077163,0.11189001,0.2238741
 0,0.00087201,0.00030800,-0.00038145,0.00420998,-0.00813511,-0.00450658
 ,-0.10927155,0.00124319,0.04055079,-0.02011191,0.00093523,0.03605577,0
 .00017537,-0.00018692,0.00004393,0.00011697,0.00041474,-0.00019938,0.0
 0163170,0.00123346,0.00130869,-0.00597100,-0.00431100,0.00038325,0.010
 06698,0.00197822,-0.02013309,0.00021701,-0.00017670,-0.00083492,-0.002
 07245,0.00455264,-0.00274806,-0.09793105,0.01687168,-0.00276306,-0.004
 72954,0.03492466,-0.00260686,0.00385705,-0.01700917,0.00183205,0.63252
 792,-0.00012922,0.00076905,-0.00046516,0.00422347,-0.02537637,0.014840
 08,0.00185076,-0.09359008,-0.01667912,-0.00736256,0.00420451,0.0159404
 6,-0.00021783,-0.00013069,0.00000525,0.00078767,0.00036154,-0.00044225
 ,0.00095512,0.00074436,0.00007372,-0.00378738,-0.00166597,0.00116454,-
 0.00536972,-0.00001268,0.01562932,-0.00039172,0.00067928,-0.00023381,0
 .00144987,-0.00344079,0.00090116,0.02398814,-0.17631656,0.00223528,-0.
 00148335,-0.00499160,0.00021712,0.00467682,-0.01343812,0.00403066,0.05
 710231,0.52699474,-0.00048360,0.00017610,0.00054180,-0.00700038,0.0303
 9584,-0.00664017,0.04047842,-0.00802380,-0.17291851,0.00598492,0.00280
 183,-0.00200002,0.00004097,-0.00043131,-0.00005676,-0.00038920,-0.0004
 6578,-0.00003335,-0.00243545,-0.00061755,0.00069681,-0.00190926,-0.000
 44413,0.00032664,0.00686707,0.01049319,-0.04113575,0.00100841,-0.00119
 354,0.00088620,-0.00308163,0.00340201,-0.00172336,-0.00141705,-0.00326
 049,-0.08294145,-0.00041123,-0.00323232,-0.00010861,0.00791592,-0.0235
 3316,0.00287739,0.06224955,-0.07094285,0.58152600,0.00002713,0.0006337
 2,-0.00027532,0.00013288,0.00136283,0.00029924,-0.01306733,-0.00864720
 ,-0.00130027,-0.00098294,0.00160427,0.00410225,0.00003679,-0.00001914,
 -0.00003083,0.00008133,-0.00009720,0.00002230,0.00069881,0.00012030,0.
 00019098,-0.00098453,-0.00094470,0.00049277,0.00005171,0.00007229,-0.0
 0051517,0.00074977,-0.00031794,-0.00001721,0.00026948,0.00013049,0.000
 19962,0.00892172,0.00873586,-0.00185924,0.00252072,-0.00021613,0.00017
 476,0.00049114,0.00137139,0.00030351,-0.24363116,-0.12950927,0.0198448
 6,0.26336159,0.00047383,0.00034370,-0.00031430,0.00186543,-0.00396636,
 -0.00135815,0.00755655,0.00469430,-0.00075591,0.00085630,0.00062136,-0
 .00171575,0.00009022,0.00012048,0.00000431,-0.00005196,0.00008701,0.00
 008503,-0.00015968,-0.00005762,-0.00015197,0.00040229,0.00030848,-0.00
 025887,-0.00074989,-0.00012932,-0.00007119,0.00034615,0.00007408,0.000
 38734,0.00025104,0.00004962,0.00012192,-0.02767197,-0.01864257,0.00267
 739,0.00024364,0.00246801,-0.00033534,0.00078513,-0.00442726,0.0009560
 8,-0.12823214,-0.14266164,0.01569486,0.13751477,0.15483913,-0.00037950
 ,-0.00068745,0.00007434,-0.00033457,0.00013153,-0.00032198,0.02877090,
 0.02047793,-0.00021736,0.00136173,-0.00149608,-0.00694869,0.00000370,0
 .00022060,0.00003322,-0.00007439,-0.00000761,0.00003424,0.00008732,-0.
 00035669,0.00034617,0.00209046,0.00106944,0.00005027,0.00071473,-0.000
 31482,0.00164344,-0.00058132,0.00025813,-0.00034797,-0.00025130,-0.000
 36731,0.00006008,-0.00221178,-0.00139761,-0.00010845,-0.00000007,0.000
 37823,0.00141673,0.00038528,-0.00066571,0.00010231,0.01745916,0.014831
 24,-0.06253715,-0.02320454,-0.01515531,0.06090354,-0.00008245,-0.00010
 953,-0.00008545,-0.00040681,0.00043229,0.00045960,0.01045578,-0.005007
 44,0.01209013,0.00144390,-0.00017318,0.00075192,0.00001353,0.00000862,
 0.00004297,0.00007078,0.00002171,-0.00002198,0.00012767,0.00003528,0.0
 0033923,0.00040398,0.00004525,0.00006790,-0.00134328,-0.00018229,0.003
 48358,0.00036025,-0.00002158,0.00022716,0.00076980,-0.00067586,0.00043
 812,-0.00489341,-0.00022251,-0.00385811,0.00032431,0.00169175,0.000033
 98,0.00159241,0.00010355,0.00058694,-0.16986301,0.04145328,-0.13148606
 ,-0.01908937,0.00682810,-0.02319234,0.17993338,0.00029474,0.00002930,0
 .00036801,0.00165490,-0.00358059,0.00025095,-0.00558541,0.00208265,-0.
 00457231,-0.00007349,0.00015917,0.00104038,-0.00010069,-0.00015601,-0.
 00001713,-0.00020638,0.00005580,-0.00008373,-0.00030998,0.00020019,0.0
 0004308,-0.00022081,-0.00007330,-0.00017441,0.00068956,-0.00074201,-0.
 00148873,0.00025741,-0.00022270,0.00000162,0.00000811,0.00060016,-0.00
 000397,0.02146466,-0.00468803,0.02452635,0.00110540,-0.00426072,0.0007
 6844,-0.00051713,0.00238592,-0.00054039,0.03946461,-0.07284795,0.04752
 656,-0.01269249,0.00587642,-0.01651347,-0.04443105,0.07564668,-0.00015
 836,0.00021700,0.00004107,0.00005160,-0.00094693,-0.00023263,-0.021777
 25,0.00952019,-0.02095359,-0.00285928,-0.00019451,0.00146990,0.0001251
 4,0.00016960,0.00006294,0.00006680,-0.00008887,0.00006392,0.00166079,0
 .00012666,0.00086595,-0.00003093,-0.00039915,0.00065671,0.00401887,-0.
 00135624,-0.00641263,0.00005581,-0.00031771,0.00028654,-0.00104755,0.0
 0185329,-0.00114613,0.00348824,-0.00272750,0.00287750,0.00071111,-0.00
 070773,0.00010240,0.00027068,0.00075049,0.00139710,-0.12772996,0.04920
 068,-0.20668467,0.00177250,-0.00193615,0.00404516,0.14107940,-0.052637
 70,0.22386246,-0.00906582,0.03147716,-0.00929408,-0.10760014,0.1004493
 1,-0.03566659,-0.00135154,-0.00258790,-0.00050908,-0.00624819,-0.00035
 115,-0.00010279,-0.00018255,-0.00053754,-0.00067536,0.00179984,-0.0004
 5157,0.00087580,-0.00035789,0.00134329,0.00004733,-0.00046444,0.001251
 98,0.00005142,0.00414278,-0.00806166,0.00507277,0.00021694,0.00058798,
 0.00053503,0.00000361,0.00070435,0.00008160,0.00501939,-0.01129822,0.0
 0231804,0.00080578,-0.00002399,-0.00085223,0.00005563,0.00030234,-0.00
 012513,0.00027457,-0.00165052,0.00232074,0.00007037,-0.00042931,0.0000
 1933,0.00008464,-0.00059587,0.00007864,0.11211083,-0.00305015,0.005394
 66,-0.00131257,0.09981526,-0.26556125,0.07046458,-0.00097509,-0.004601
 51,-0.00244795,-0.00180959,0.00002970,-0.00016740,0.00072729,-0.000069
 35,-0.00004410,0.00103209,0.00051809,-0.00048646,0.00012381,0.00020025
 ,-0.00000695,0.00008785,0.00016436,0.00004512,0.01131184,-0.01505775,0
 .01143881,-0.00080181,0.00029741,0.00016556,0.00023592,0.00059296,-0.0
 0070367,0.00307888,-0.00442841,-0.00033077,-0.00080849,0.00023153,0.00
 020101,-0.00012493,-0.00008663,0.00072408,-0.00001527,-0.00024052,0.00
 028968,0.00003217,-0.00029328,0.00016714,-0.00001757,-0.00033600,0.000
 17448,-0.10993441,0.28428233,0.00060412,-0.00054097,-0.00029849,-0.035
 88988,0.07137603,-0.08464368,0.00005894,-0.00476679,-0.00322557,0.0001
 2569,-0.00132213,0.00073889,-0.00005350,0.00005847,-0.00015915,-0.0001
 5428,-0.00048275,0.00056275,0.00018700,-0.00010941,-0.00001572,0.00002
 607,0.00000907,0.00000593,0.01189638,-0.01641472,0.00996156,-0.0003789
 4,0.00103718,0.00044373,0.00034108,0.00109629,0.00036152,-0.01467752,0
 .02786803,-0.00456066,0.00042409,-0.00080784,0.00184327,-0.00045197,-0
 .00058279,-0.00037987,0.00215486,0.00119021,-0.00551369,-0.00020294,0.
 00121362,-0.00007124,-0.00028690,0.00119860,0.00007800,0.03555660,-0.0
 7921644,0.08366655,-0.00579272,-0.00268359,-0.00016824,-0.00350626,0.0
 0315890,-0.00158288,-0.05926328,0.00707756,0.00094103,0.00567491,-0.03
 133107,-0.00884935,0.00036264,-0.00125852,0.00003866,0.00021909,-0.001
 22360,0.00006636,-0.00008047,0.00053180,-0.00061926,0.00176391,0.00110
 092,0.00055175,0.00137320,0.01662586,0.00978600,0.00014649,-0.00066669
 ,0.00055097,0.00051491,-0.00074503,-0.00025291,-0.00051811,0.00150573,
 0.00219186,-0.00017010,0.00049344,0.00009439,-0.00025669,0.00063724,0.
 00015038,-0.00036789,0.01341413,0.00190300,0.00034188,0.00008151,-0.00
 066279,0.00009791,-0.00020609,0.00022374,0.00068620,0.00109220,0.00072
 110,0.05877439,-0.00122518,-0.00042589,0.00010106,0.00154601,-0.002446
 96,0.00193547,0.00771144,-0.31389452,-0.07897620,0.00319624,-0.0093461
 3,-0.00313214,-0.00003916,-0.00052029,0.00002800,-0.00005933,-0.000519
 18,-0.00001630,-0.00073315,-0.00017124,-0.00027307,-0.00038266,0.00055
 390,0.00083620,-0.00274790,-0.01228813,-0.00779936,0.00072314,0.000367
 89,0.00010047,-0.00027661,0.00008165,0.00066171,-0.00012958,0.00055226
 ,0.00081590,0.00003204,-0.00005278,-0.00013928,0.00005893,0.00000533,-
 0.00011837,-0.00096242,0.00095949,0.00136486,0.00086598,0.00069546,-0.
 00057222,0.00022115,-0.00012897,-0.00069989,-0.00019424,-0.00103657,-0
 .00080364,-0.00760471,0.33761468,-0.00049963,0.00123053,0.00073898,-0.
 00215088,0.00425427,-0.00322540,0.00116431,-0.07988763,-0.08464712,0.0
 0028562,0.00075916,-0.00029848,0.00011525,0.00018347,-0.00001571,0.000
 02732,0.00000402,0.00000594,-0.00002043,-0.00007660,-0.00015914,-0.000
 35998,0.00035678,0.00056277,0.00296246,0.02005389,0.00996164,0.0001433
 8,-0.00109490,0.00044370,0.00080915,-0.00081449,0.00036149,0.00246066,
 -0.00005941,-0.00551374,0.00038101,-0.00116987,-0.00007127,0.00029966,
 -0.00119559,0.00007799,-0.00013469,-0.03149654,-0.00456135,0.00000273,
 0.00091238,0.00184333,-0.00067010,0.00030786,-0.00037999,0.00026798,0.
 00104587,0.00120586,-0.00508381,0.08668679,0.08367048\\0.00004353,0.00
 011623,-0.00000587,0.00001832,0.00000213,0.00002523,0.00001628,0.00000
 653,0.00002539,0.00009375,-0.00008323,-0.00000761,-0.00001445,-0.00003
 253,-0.00002650,-0.00002696,-0.00002058,0.00005330,-0.00002820,0.00002
 200,-0.00002592,-0.00003306,0.00000612,0.00005399,-0.00006353,-0.00001
 584,-0.00009520,0.00000729,0.00000178,-0.00001354,-0.00001481,-0.00000
 368,0.00000221,-0.00005692,0.00009042,0.00006305,0.00006297,0.00000150
 ,-0.00000839,-0.00000875,-0.00003076,-0.00003037,-0.00000694,-0.000105
 86,0.00006354,0.00005610,0.00002758,-0.00000919,-0.00002263,0.00002342
 ,-0.00003047,0.00001230,-0.00009799,-0.00001671,-0.00003431,0.00009274
 ,-0.00001695\\\@


 WORK FAITHFULLY FOR EIGHT HOURS A DAY AND DON'T WORRY.
 IN TIME YOU MAY BECOME BOSS AND WORK TWELVE HOURS A DAY
 AND HAVE ALL THE WORRY.
 Job cpu time:       0 days  0 hours  9 minutes 19.2 seconds.
 Elapsed time:       0 days  0 hours  9 minutes 19.3 seconds.
 File lengths (MBytes):  RWF=     97 Int=      0 D2E=      0 Chk=      6 Scr=      1
 Normal termination of Gaussian 16 at Fri Nov 22 12:25:08 2024.
