[Molden Format]
[Molpro variables]
_NUMVAR=  1058.000000000000    
_AVOGAD= 0.6022140760000000E+24
_BOLTZ= 0.1380649000000000E-22
_CLIGHTSI=  299792458.0000000    
_JOULE= 0.4359744722207100E-17
_JPCAL=  4.184000000000000    
_PLANCK= 0.6626070150000000E-33
_BOHR= 0.5291772109030000E-10
_ECHARG= 0.1602176634000000E-18
_ENULL= 0.8854187812800001E-11
_MU= 0.1660539066600000E-26
_EMASS= 0.9109383701500001E-30
_AMU2AU=  1822.888486217313    
_CLIGHT=  29979245800.00000    
_EV= 0.3674932217565494E-01
_KJOULE= 0.3808798847133432E-03
_KJOULE/MOL= 0.3808798847133432E-03
_CM= 0.4556335252912009E-05
_CM-1= 0.4556335252912009E-05
_DEB2SI= 0.3335640951981520E-29
_KCAL= 0.1593601437640628E-02
_KCAL/MOL= 0.1593601437640628E-02
_KELVIN= 0.3166811563455608E-05
_HERTZ= 0.1519829846057038E-15
_HZ= 0.1519829846057038E-15
_TOA= 0.5291772109030000    
_TOANG= 0.5291772109030000    
_TORAD= 0.1745329251994330E-01
_TOCM=  219474.6313631965    
_TODEBYE=  2.541746473194078    
_TOE= 0.4803204712570263E-09
_TOEV=  27.21138624598803    
_TOHERTZ=  6579683920501656.    
_TOHZ=  6579683920501656.    
_TOK=  315775.0248040668    
_TOKCAL=  627.5094740630558    
_TOKELVIN=  315775.0248040668    
_TOKJ=  2625.499639479825    
_TOKJOULE=  2625.499639479825    
_TOKG= 0.1660539066600000E-26
_ANG=  1.889726124625770    
_ANGSTROM=  1.889726124625770    
_RPAREF=  0.000000000000000    
_RPADISS=  0.000000000000000    
_IGNORE_UNDEF=  2.000000000000000    
_STRICTCHECK=  0.000000000000000    
!SEWARD=  0.000000000000000    
!MULTI=  0.000000000000000    
!DFMULTI=  0.000000000000000    
!NUMHESS=  0.000000000000000    
_SEW_ONEEL=  0.000000000000000    
_CPPDONE=FALSE
_DKROLL_DONE=  0.000000000000000    
_FNUC_DONE=  0.000000000000000    
_FOCKDONE=TRUE
_GRADONE=FALSE
_HESSDONE=TRUE
_INTDONE=TRUE
_SCFDONE=TRUE
_MODUL_BLOCK=FALSE
_MODUL_SLATER=TRUE
_MODUL_MRCC=FALSE
_MODUL_NBO6=FALSE
_MODUL_NECI=FALSE
_MODUL_AIMS=TRUE
_MODUL_HDF5=FALSE
_MODUL_GECCO=FALSE
_ISWINDOWS=FALSE
_MRCC_EXEC=
_FITC_AO_SAVED=FALSE
_FITC_MO_SAVED=FALSE
_LSTYP=SEWARD
_INTYP=INTS
_GEOMTYP=XYZ
_GRADTYP=ALASKA
_DIRECT=FALSE
_DKHO= -1.000000000000000    
_FNUC=  0.000000000000000    
_SYNCM=  0.000000000000000    
_BASIS=6-311G(D,P)
_ZCENTRE=MASS
_ZORIENT=  1.000000000000000    
_NELEC=  10.00000000000000    
!SPIN=  0.000000000000000    
_OPTCONV= 0.1350473791605059E-04
_QSDSTEP=  0.000000000000000    
_QSDIRC=  0.000000000000000    
_PROGRAM=FREQ
_CPUSTEP= 0.1900000000000001    
_SYSSTEP= 0.1999999999999996E-01
_WALLSTEP= 0.2200000000000000    
!DFSCF=  0.000000000000000    
!SCSGRD=  0.000000000000000    
_NCEN=  3.000000000000000    
_CPUTOT= 0.8200000000000001    
_DFTEXFAC=  1.000000000000000    
_DMX=  0.000000000000000    
_DMY= 0.7885176886761718    
_DMZ= 0.2925228560174609    
_DMX_SCF=  0.000000000000000    
_DMY_SCF= 0.7885176886761718    
_DMZ_SCF= 0.2925228560174609    
_FREQUENCIES= 0.6922730725149877E-04
_HOMO=  1.200000000000000    
_EHOMO=-0.5006662176060515    
_LUMO=  5.100000000000000    
_ELUMO= 0.1525987464595635    
_ENERGY= -76.04701202781307    
_ENERGY_METHOD=HF
_ENERGY_BASIS=6-311G(D,P)
_GEOMETRY_METHOD=HF
_GEOMETRY_BASIS=6-311G(D,P)
_ENUC=  9.351280055731376    
_GRADENERG= -76.04701202778341    
_GRADEXFAC=  9999.000000000000    
_GRADMETHOD=  1.000000000000000    
_NMRMETHOD=  0.000000000000000    
_NMRMAGNET=  0.000000000000000    
_VIRIAL= 0.5664472263541779E-05
!GRID_FREEZE= -1.000000000000000    
!NEESE_INDEX=  0.000000000000000    
_ITERATIONS=  10.00000000000000    
_LASTNELEC=  10.00000000000000    
_LASTSPIN=  0.000000000000000    
_LASTSYM=  1.000000000000000    
_MPP_PROG=  0.000000000000000    
_MSNSTATES=  0.000000000000000    
_RS2PHASE=  0.000000000000000    
_NPROC_MPP=  1.000000000000000    
_NPROC_SMP=  6.000000000000000    
_NUMSTEP=  0.000000000000000    
_OPTCONVMX= 0.1197981101435763E-04
_OPTCONVRMS= 0.9549291758586459E-05
_OPTGRAD= 0.3303849782620166E-05
_OPTGRADMX= 0.3297636938982128E-05
_OPTGRADRMS= 0.2336174585312420E-05
!GMAXLAST= 0.3297636938982128E-05
!DMAXLAST= 0.1197981101435763E-04
!DELAST= 0.2498344287005239E-06
_OPTSTEP=  4.000000000000000    
_ORBITAL=  2100.200000000000    
_PI=  3.141592653589793    
_SEIG_MIN= 0.1696961224981607E-01
_SEWPROP=TRUE
_STATUS=  1.000000000000000    
_SYSTOT= 0.2300000000000000    
_VERSION=  2024001.000000000    
_WALLTOT=  1.060000000000000    
_ZPE= 0.1998072005081656E-01
_DATE=22-Sep-24
_LASTORB=0
_OUTPUT=/home/lme/Theoretische_Chemie/Nomodeco/pubchempy_integration/water.molpro/run/water_2.molpro/water_2.out
_PGROUP=Cs
_TIME=19:41:10
_LIBMOL=/usr/local/molpro/molpro_2024.1.0_sockets/lib/
_VIGRDC=  0.000000000000000    
!VIBCNT=  0.000000000000000    
!SURFREC=  0.000000000000000    
!XSURFREC=  0.000000000000000    
!XPOLYREC=  0.000000000000000    
!ROTREC=  0.000000000000000    
!POLYREC=  0.000000000000000    
!DIPREC=  0.000000000000000    
!DIP4DREC=  0.000000000000000    
!DIPROT=  0.000000000000000    
!DIP4DROT=  0.000000000000000    
!PTREC=  0.000000000000000    
!PT4DREC=  0.000000000000000    
!VSCFREC=  0.000000000000000    
!VCIREC=  0.000000000000000    
!PVCIREC=  0.000000000000000    
!VMP2REC=  0.000000000000000    
!VMCSCFREC=  0.000000000000000    
!VMRCIREC=  0.000000000000000    
!VIBSTATEREC=  0.000000000000000    
!VIBSTATECNT=  0.000000000000000    
!VIBINFO=  0.000000000000000    
!GAREC=  0.000000000000000    
!SCFORB=  21002.00000000000    
!DEFCORE=  1.000000000000000    
!SCORE=  0.000000000000000    
!NEWMOL=  0.000000000000000    
!NEWSYM=  0.000000000000000    
_SLFILES=slscratch
_NGSSTO=  9.000000000000000    
_SIN=SIN
_COS=COS
_TAN=TAN
_ACOS=ACOS
_ASIN=ASIN
_ATAN=ATAN
_COSH=COSH
_SINH=SINH
_TANH=TANH
_ABS=ABS
_MOD=MOD
_ERF=ERF
_REFC=REFC
_ERFC=ERFC
_HYPOT=HYPOT
_J0=J0
_J1=J1
_JN=JN
_GAMMA=GAMMA
_LGAMMA=LGAMMA
_Y0=Y0
_Y1=Y1
_YN=YN
_EXP=EXP
_LOG=LOG
_LOG10=LOG10
_SQRT=SQRT
_INT=INT
_NINT=NINT
_MAX=MAX
_MIN=MIN
_COSMO=  0.000000000000000    
_COSMOIT=  0.000000000000000    
_COSMOES=  0.000000000000000    
_COSMOEDS=  0.000000000000000    
_COSMOEC=  0.000000000000000    
_COSMOEDCORR=  0.000000000000000    
_FEPSI=  1.000000000000000    
_SL_IsMM=  0.000000000000000    
_SL_NSYM=  2.000000000000000    
_SL_System_BitSw=  0.000000000000000    
_SL_Unique_atoms=  0.000000000000000    
_SL_GRAD=  0.000000000000000    
_SL_MAXUPD_Hess=  5.000000000000000    
_SL_N_PRINT_COD=  5.000000000000000    
_SL_PRINT_CODES=  0.000000000000000    
_SL_BasType=  0.000000000000000    
_SL_Energy_Pred=  0.000000000000000    
_SL_New_Coords=  0.000000000000000    
_SL_Total_Nuclea=  0.000000000000000    
_SL_Highest_Mltp=  0.000000000000000    
_SL_Ref_Geom=  0.000000000000000    
_SL_Symmetry_ope=  1.000000000000000    
_SL_agrad=  0.000000000000000    
_SL_GrdMax=  0.000000000000000    
_SL_GrdNorm=  0.000000000000000    
_SL_GrdRMS=  0.000000000000000    
_SL_Hss_Q=  0.000000000000000    
_SL_Hss_X=  0.000000000000000    
_SL_BMxOld=  0.000000000000000    
_SL_KtB=  0.000000000000000    
_SL_TROld=  0.000000000000000    
_SL_No_of_Intern=  0.000000000000000    
_SL_Hess=  0.000000000000000    
_SL_K=  0.000000000000000    
!LATTICE= -1.000000000000000    
!NEWLATTICE=  0.000000000000000    
!LATGRAD_VAR=FALSE
!SEW_LATTICE=  1.000000000000000    
!AIC_ONEEL=  0.000000000000000    
!LOCAL=  0.000000000000000    
!SAVEDOM= -1.000000000000000    
!RESTDOM= -1.000000000000000    
!SAVEDOM_HF= -1.000000000000000    
!RESTDOM_HF= -1.000000000000000    
!HESSREC=  5300.200000000000    
!FREQREC=  5400.200000000000    
!NMODREC=  5450.200000000000    
!GTASKS=  0.000000000000000    
!HTASKS=  0.000000000000000    
!SAVEDOM_EOM= -1.000000000000000    
!RESTDOM_EOM= -1.000000000000000    
!GRADSTATE= -1.000000000000000    
!DEBUG=  0.000000000000000    
!CFIT_CPHF=  0.000000000000000    
!RDOMAUX_CPHF=  0.000000000000000    
!THRAO_CPHF= 0.1000000000000000E-11
!THRMO_CPHF= 0.1000000000000000E-11
!THROV_CPHF= 0.1000000000000000E-13
!THRSW_CPHF= 0.1000000000000000E-11
!THRPROD_CPHF= 0.1000000000000000E-11
!THRAOPR_CPHF= 0.1000000000000000E-11
!CFIT_SCFGRD=  0.000000000000000    
!RDOMAUX_SCFGRD=  0.000000000000000    
!THRAO_SCFGRD= 0.1000000000000000E-11
!THRMO_SCFGRD= 0.1000000000000000E-11
!THROV_SCFGRD= 0.1000000000000000E-13
!THRSW_SCFGRD= 0.1000000000000000E-11
!THRPROD_SCFGRD= 0.1000000000000000E-11
!THRAOPR_SCFGRD= 0.1000000000000000E-11
!LOCFIT_SCF=  0.000000000000000    
!LOCFIT_MP2=  0.000000000000000    
_RIDOM=  0.000000000000000    
!CC2_METHOD=  0.000000000000000    
_BASIS2006=FALSE
_SVDDEL= -1.000000000000000    
_SVDDELA= -1.000000000000000    
_SVDDELP= -1.000000000000000    
_SVDDELF= -1.000000000000000    
_SVDDELS= -1.000000000000000    
_SVDDEL_ABS= -1.000000000000000    
_SVDDELA_ABS= -1.000000000000000    
_SVDDELP_ABS= -1.000000000000000    
_SVDDELF_ABS= -1.000000000000000    
_SVDDELS_ABS= -1.000000000000000    
_MAXBASIS=  0.000000000000000    
!OPT_CONICAL=  0.000000000000000    
!CLEARSP_JGRID=  0.000000000000000    
_GRDHYBR=  0.000000000000000    
_STATEGRAD=  1.000000000000000    
_4EXT_NDISKS=  1.000000000000000    
!EMBEDFLAG=  1.000000000000000    
!EMBED=FALSE
!EMBED_F12=FALSE
!EMBEDNUC=  0.000000000000000    
_EMBEDENERGY=  0.000000000000000    
!EMBED_DFC=FALSE
!NUM_VOIDS=  0.000000000000000    
_IBODY=  0.000000000000000    
_EMBE_CORR=  0.000000000000000    
!EMBED_PROJ=FALSE
!EMB_PROJ_ZMU=  1000000.000000000    
!CORRECTION_HF=  0.000000000000000    
!EMBED_AORB=  0.000000000000000    
!EMBED_NACORR=  0.000000000000000    
!EMBED_MP2=FALSE
!EMBED_TRUNC_PERTURBATION=FALSE
!EMBED_FROZEN=  0.000000000000000    
!EMBED_ACTIVE=  0.000000000000000    
_CHANGE_BASIS=FALSE
_RESTORE_BASIS=FALSE
_FIX_EMBED_GUESS=FALSE
_EMBED_SCF=FALSE
_NEOBAS=FALSE
_NEOOVE=FALSE
_PRINEO=FALSE
_HUZINAGA_T=FALSE
_HUZINAGA_F=FALSE
_HUZINAGA=FALSE
_HUZINAGA_CORRECT=FALSE
!FASTLATGRAD=  1.000000000000000    
!FASTVLAMBDA= -1.000000000000000    
!IFORCE= -1.000000000000000    
!USESYM= -1.000000000000000    
_SINDEX=  0.000000000000000    
_AVDOM_OSV=  0.000000000000000    
_AVDOM_PNO=  0.000000000000000    
_AVDOM_PNOCC=  0.000000000000000    
_AVDOM_TNO=  0.000000000000000    
_AVDOM_TNOIT=  0.000000000000000    
_AVDOM_PAO=  0.000000000000000    
_AVDOM_LMO=  0.000000000000000    
_CC2OSV_FLAG=  0.000000000000000    
_EOMCCSD_CONV=FALSE
_TMADC2_FLAG=FALSE
_PROPADC2_FLAG=FALSE
_LEN_VirQ=  0.000000000000000    
_GRDCC2LR_FLAG=FALSE
_GRDADC2_FLAG=FALSE
_RO_VGLOBAL=  0.000000000000000    
_OPT=FALSE
_FREQ=FALSE
_HESS=FALSE
_CMRCC_callName=EMPTY
_CMRCC_callCount=  0.000000000000000    
_GECCO_CIROOT=  1.000000000000000    
_SYM_CATION=  2.000000000000000    
_MON_A=FALSE
_MON_B=FALSE
_MAXGEOM=  100.0000000000000    
!MAXGEOM=  100.0000000000000    
_NCORE=  0.000000000000000    
_NLARGECORE=  0.000000000000000    
GX1=  0.000000000000000    
GY1=-0.7109972522787093E-01
GZ1=-0.6862025913021216E-01
GX2=  0.000000000000000    
GY2= 0.2026878816388011    
GZ2= 0.8316428313179062    
GX3=  0.000000000000000    
GY3= 0.7235942121458149    
GZ3=-0.5725000380442749    
O1X1=  0.000000000000000    
O1Y1=-0.1343590082168216    
O1Z1=-0.1296734963569520    
H2X2=  0.000000000000000    
H2Y2= 0.3830245850778985    
H2Z2=  1.571577184699190    
H3X3=  0.000000000000000    
H3Y3=  1.367394886319948    
H3Z3= -1.081868278241513    
[Atoms] Angs
O     1    8         0.0000000000       -0.0710997252       -0.0686202591
H     2    1         0.0000000000        0.2026878816        0.8316428313
H     3    1         0.0000000000        0.7235942121       -0.5725000380
[GTO]
   1 0
 s    6  1.00
  0.8588500000D+04  0.1895150083D-02
  0.1297230000D+04  0.1438590063D-01
  0.2992960000D+03  0.7073200310D-01
  0.8737710000D+02  0.2400010105D+00
  0.2567890000D+02  0.5947970261D+00
  0.3740040000D+01  0.2808020123D+00
 s    3  1.00
  0.4211750000D+02  0.1138890124D+00
  0.9628370000D+01  0.9208111006D+00
  0.2853320000D+01 -0.3274470358D-02
 s    1  1.00
  0.9056610000D+00  0.1000000000D+01
 s    1  1.00
  0.2556110000D+00  0.1000000000D+01
 p    3  1.00
  0.4211750000D+02  0.3651139738D-01
  0.9628370000D+01  0.2371529830D+00
  0.2853320000D+01  0.8197019412D+00
 p    1  1.00
  0.9056610000D+00  0.1000000000D+01
 p    1  1.00
  0.2556110000D+00  0.1000000000D+01
 d    1  1.00
  0.1292000000D+01  0.1000000000D+01
  
   2 0
 s    3  1.00
  0.3386500000D+02  0.2549381454D-01
  0.5094790000D+01  0.1903731086D+00
  0.1158790000D+01  0.8521614860D+00
 s    1  1.00
  0.3258400000D+00  0.1000000000D+01
 s    1  1.00
  0.1027410000D+00  0.1000000000D+01
 p    1  1.00
  0.7500000000D+00  0.1000000000D+01
  
   3 0
 s    3  1.00
  0.3386500000D+02  0.2549381454D-01
  0.5094790000D+01  0.1903731086D+00
  0.1158790000D+01  0.8521614860D+00
 s    1  1.00
  0.3258400000D+00  0.1000000000D+01
 s    1  1.00
  0.1027410000D+00  0.1000000000D+01
 p    1  1.00
  0.7500000000D+00  0.1000000000D+01


[MO]
 Sym=      1.1
 Ene=     -20.5413
 Spin= Alpha
 Occup=    2.000000
1 0.55142989298188
2 0.47167849780356
3 0.005566602826405
4 -0.000465163522952
5 0.0
6 0.001673758895095
7 0.000620927900131
8 0.0
9 -0.000579088017617
10 -0.000214828946803
11 0.0
12 0.000088719211844
13 0.000032912867193
14 0.000115378668204
15 -0.000027458760891
16 -0.000087919907313
17 0.0
18 0.0
19 0.000030032958662
20 0.000208611729162
21 0.000083188951528
22 0.000098883422204
23 0.0
24 0.000014239757915
25 -0.000069685218934
26 0.000208611736454
27 0.000083188957515
28 0.000098883410649
29 0.0
30 -0.000034654118346
31 0.000062111959962
 Sym=      2.1
 Ene=      -1.3491
 Spin= Alpha
 Occup=    2.000000
1 -0.11335954006293
2 -0.18935716188410
3 0.53787734267360
4 0.37190453391511
5 0.0
6 0.035656738631491
7 0.013227872535417
8 0.0
9 0.059202371324482
10 0.021962788516987
11 0.0
12 0.019482055124509
13 0.007227417517448
14 -0.008344511092954
15 0.003103435438269
16 0.005241075654685
17 0.0
18 0.0
19 -0.001061832363085
20 0.096562573940848
21 0.081307885004255
22 -0.002674935453845
23 0.0
24 -0.005214030563296
25 -0.027380841189846
26 0.096562572610830
27 0.081307883715647
28 -0.002674933784154
29 0.0
30 -0.021810211763310
31 0.017355437542120
 Sym=      3.1
 Ene=      -0.7172
 Spin= Alpha
 Occup=    2.000000
1 0.000000000522331
2 0.000000000842458
3 -0.000000001260171
4 -0.000000005068148
5 0.0
6 -0.079085939442752
7 0.21318220944925
8 0.0
9 -0.12133949491513
10 0.32707990527091
11 0.0
12 -0.073661848803627
13 0.19856115662203
14 0.000000000008349
15 -0.016564600413816
16 0.016564600405468
17 0.0
18 0.0
19 0.022231474086906
20 0.15126546368995
21 0.21225549699048
22 0.054487543871101
23 0.0
24 -0.017561526220680
25 -0.026467934648754
26 -0.15126546238753
27 -0.21225549224320
28 -0.054487550392921
29 0.0
30 0.030574821170041
31 -0.008610401436645
 Sym=      4.1
 Ene=      -0.5729
 Spin= Alpha
 Occup=    2.000000
1 0.038140091930902
2 0.064860196853293
3 -0.19645676524202
4 -0.33484861661390
5 0.0
6 0.23972712989920
7 0.088933526848765
8 0.0
9 0.35457401745477
10 0.13153921244131
11 0.0
12 0.31876387477043
13 0.11825443557362
14 -0.012876260621598
15 0.014433250805333
16 -0.001556990183735
17 0.0
18 0.0
19 0.007942850943598
20 0.087465321980928
21 0.14600256190893
22 0.027263581337857
23 0.0
24 0.019305165790391
25 -0.024536442163375
26 0.087465325801394
27 0.14600257203500
28 0.027263586736280
29 0.0
30 -0.001368353151050
31 0.031190608687629
 Sym=      1.2
 Ene=      -0.5007
 Spin= Alpha
 Occup=    2.000000
1 0.0
2 0.0
3 0.0
4 0.0
5 0.29169577945655
6 0.0
7 0.0
8 0.43668228241582
9 0.0
10 0.0
11 0.46587792086700
12 0.0
13 0.0
14 0.0
15 0.0
16 0.0
17 0.016070237004660
18 0.005961706845987
19 0.0
20 0.0
21 0.0
22 0.0
23 0.031532230808177
24 0.0
25 0.0
26 0.0
27 0.0
28 0.0
29 0.031532229992940
30 0.0
31 0.0
 Sym=      5.1
 Ene=       0.1526
 Spin= Alpha
 Occup=    0.000000
1 0.033502774072758
2 0.054636205813306
3 -0.10269999414046
4 -0.85277766316906
5 0.0
6 -0.067115291873822
7 -0.024898309916606
8 0.0
9 -0.10683623517883
10 -0.039633912033617
11 0.0
12 -0.18744078475047
13 -0.069536449245050
14 0.005458389049418
15 -0.004117590545547
16 -0.001340798503870
17 0.0
18 0.0
19 -0.001379319257236
20 0.034136694305670
21 -0.068275355455850
22 0.84442410761022
23 0.0
24 -0.005354850309033
25 0.003479895362037
26 0.034136691893756
27 -0.068275350456142
28 0.84442401700338
29 0.0
30 -0.001789659512868
31 -0.006130351422119
 Sym=      6.1
 Ene=       0.2186
 Spin= Alpha
 Occup=    0.000000
1 -0.000000001018440
2 -0.000000001679800
3 0.000000003315361
4 0.000000023747791
5 0.0
6 0.041819790577361
7 -0.11272843756570
8 0.0
9 0.044333820411753
10 -0.11950519241034
11 0.0
12 0.17233157177585
13 -0.46453291887550
14 -0.000000000182737
15 0.003127038673413
16 -0.003127038490676
17 0.0
18 0.0
19 -0.004196821495030
20 0.023623951108679
21 -0.13011047749642
22 1.58003260729055
23 0.0
24 0.004594808269515
25 0.011146354933930
26 -0.023623952984713
27 0.13011048480928
28 -1.58003265736096
29 0.0
30 -0.010752716345737
31 0.005452758873361
 Sym=      7.1
 Ene=       0.5772
 Spin= Alpha
 Occup=    0.000000
1 0.000000001242228
2 0.000000002163996
3 -0.000000004968273
4 -0.000000051123628
5 0.0
6 0.041856409114134
7 -0.11282716344693
8 0.0
9 0.064607231552916
10 -0.17415375798698
11 0.0
12 0.40727916377001
13 -1.09785224614438
14 -0.000000000165542
15 -0.007353453369552
16 0.007353453535094
17 0.0
18 0.0
19 0.009869124018489
20 0.079808492468933
21 1.48644335597331
22 -0.72178506314815
23 0.0
24 0.011672130624255
25 -0.023634269804635
26 -0.079808487093566
27 -1.48644322363164
28 0.72178501762897
29 0.0
30 0.006566169781282
31 -0.025528468590290
 Sym=      8.1
 Ene=       0.6207
 Spin= Alpha
 Occup=    0.000000
1 0.033596398400434
2 0.059028160319783
3 -0.13501013437054
4 -1.48864342064043
5 0.0
6 -0.090021762617827
7 -0.033396103353810
8 0.0
9 -0.17399973719968
10 -0.064550095295194
11 0.0
12 -1.02049277382001
13 -0.37858047435278
14 -0.001401348092039
15 -0.008372161551091
16 0.009773509643130
17 0.0
18 0.0
19 -0.009013521437783
20 0.062656136409463
21 1.85072040122529
22 -0.60057550178269
23 0.0
24 -0.028997385963323
25 -0.050112503019100
26 0.062656142419691
27 1.85072051463770
28 -0.60057554940387
29 0.0
30 -0.054664699653692
31 0.019075702040639
 Sym=      9.1
 Ene=       0.9975
 Spin= Alpha
 Occup=    0.000000
1 -0.012908023407556
2 -0.024137172560676
3 0.046479318661219
4 0.95095977343008
5 0.0
6 -0.22036040019946
7 -0.081748894315285
8 0.0
9 -0.68995470250781
10 -0.25595812215070
11 0.0
12 1.46981890332980
13 0.54527071072070
14 -0.013062682179612
15 -0.001891461661178
16 0.014954143840789
17 0.0
18 0.0
19 -0.008367738205263
20 -0.033765172082385
21 -0.57477410097286
22 -0.11535568223797
23 0.0
24 0.040335801629976
25 0.17706978286642
26 -0.033765171330631
27 -0.57477409258818
28 -0.11535568373104
29 0.0
30 0.14606101995554
31 -0.10792063377052
 Sym=      2.2
 Ene=       1.0031
 Spin= Alpha
 Occup=    0.000000
1 0.0
2 0.0
3 0.0
4 0.0
5 -0.23940065017770
6 0.0
7 0.0
8 -0.83600700790934
9 0.0
10 0.0
11 1.15633090773769
12 0.0
13 0.0
14 0.0
15 0.0
16 0.0
17 -0.007871715662917
18 -0.002920234646968
19 0.0
20 0.0
21 0.0
22 0.0
23 -0.027705930257037
24 0.0
25 0.0
26 0.0
27 0.0
28 0.0
29 -0.027705931388303
30 0.0
31 0.0
 Sym=     10.1
 Ene=       1.1114
 Spin= Alpha
 Occup=    0.000000
1 0.000000000653086
2 0.000000001407222
3 -0.000000011805524
4 0.000000031677984
5 0.0
6 0.083838724129170
7 -0.22599369428788
8 0.0
9 0.24521094820518
10 -0.66098486248761
11 0.0
12 -0.62693424119663
13 1.68994923617301
14 -0.000000000166825
15 -0.017980790476519
16 0.017980790643344
17 0.0
18 0.0
19 0.024132153826484
20 -0.019633793108085
21 -0.34715743596483
22 -0.80113412168282
23 0.0
24 0.075982094483104
25 0.21419082998683
26 0.019633792877556
27 0.34715741115992
28 0.80113411781929
29 0.0
30 -0.19729290969247
31 0.11281176878423
 Sym=     11.1
 Ene=       1.3105
 Spin= Alpha
 Occup=    0.000000
1 0.099742144652193
2 0.20421057490687
3 -1.48624426369128
4 3.19029309371789
5 0.0
6 -0.026283196200825
7 -0.009750489093272
8 0.0
9 0.16693037758785
10 0.061927530376816
11 0.0
12 0.55110842686060
13 0.20444917407546
14 -0.035644149848616
15 0.025639525931775
16 0.010004623916841
17 0.0
18 0.0
19 0.007766343437930
20 0.008823180754701
21 -0.88715982342261
22 -0.35674457698741
23 0.0
24 0.28202490486784
25 0.30075254065582
26 0.008823179575151
27 -0.88715982636501
28 -0.35674459086566
29 0.0
30 0.40993879226628
31 -0.044049129565679
 Sym=     12.1
 Ene=       1.4982
 Spin= Alpha
 Occup=    0.000000
1 -0.033436841374919
2 -0.069325661162656
3 0.58498108149004
4 -2.05780708800354
5 0.0
6 -0.013921479313800
7 -0.005164564585748
8 0.0
9 -0.11314853772735
10 -0.041975635102473
11 0.0
12 -1.16585554546816
13 -0.43250693089190
14 -0.008602041513255
15 0.089324712639859
16 -0.080722671126604
17 0.0
18 0.0
19 0.084467841812484
20 -0.084222989023329
21 1.20386971047106
22 -0.029170801934068
23 0.0
24 0.60919165180008
25 -0.41193392045008
26 -0.084222988450076
27 1.20386971730199
28 -0.029170799785865
29 0.0
30 0.19313467858713
31 0.70957945801593
 Sym=      3.2
 Ene=       1.5159
 Spin= Alpha
 Occup=    0.000000
1 0.0
2 0.0
3 0.0
4 0.0
5 -0.000000000622083
6 0.0
7 0.0
8 -0.000000000651132
9 0.0
10 0.0
11 -0.000000008335170
12 0.0
13 0.0
14 0.0
15 0.0
16 0.0
17 -0.042419998710907
18 0.11434635595720
19 0.0
20 0.0
21 0.0
22 0.0
23 0.68970718132160
24 0.0
25 0.0
26 0.0
27 0.0
28 0.0
29 -0.68970716102669
30 0.0
31 0.0
 Sym=      4.2
 Ene=       1.7269
 Spin= Alpha
 Occup=    0.000000
1 0.0
2 0.0
3 0.0
4 0.0
5 -0.052895706344948
6 0.0
7 0.0
8 -0.075165987858749
9 0.0
10 0.0
11 -0.55154597065380
12 0.0
13 0.0
14 0.0
15 0.0
16 0.0
17 0.13638966389227
18 0.050597583556077
19 0.0
20 0.0
21 0.0
22 0.0
23 0.77200362243130
24 0.0
25 0.0
26 0.0
27 0.0
28 0.0
29 0.77200363984054
30 0.0
31 0.0
 Sym=     13.1
 Ene=       1.9304
 Spin= Alpha
 Occup=    0.000000
1 -0.000000000068941
2 -0.000000000141390
3 0.000000001020266
4 -0.000000004967034
5 0.0
6 -0.005272540034038
7 0.014212535164793
8 0.0
9 -0.009544268029780
10 0.025727304762057
11 0.0
12 0.33013824431836
13 -0.88991291146518
14 -0.000000000020620
15 0.044698916715922
16 -0.044698916695302
17 0.0
18 0.0
19 -0.059990748435355
20 -0.19090963503622
21 0.78720683264547
22 -0.16050066940662
23 0.0
24 -0.77796799250417
25 0.22423327493178
26 0.19090963051482
27 -0.78720682118627
28 0.16050066705794
29 0.0
30 0.44349334245673
31 0.67736875162266
 Sym=     14.1
 Ene=       2.2775
 Spin= Alpha
 Occup=    0.000000
1 0.000000000623418
2 0.000000001150012
3 -0.000000004458675
4 0.000000000773704
5 0.0
6 0.061399582368660
7 -0.16550728242943
8 0.0
9 0.16278535703795
10 -0.43880039933730
11 0.0
12 -0.009433684590270
13 0.025429227980301
14 -0.000000005569521
15 -0.14267148220895
16 0.14267148777847
17 0.0
18 0.0
19 0.19148046705615
20 0.71315271588926
21 -0.74249281957649
22 0.54210958075847
23 0.0
24 -0.35138697237722
25 -0.39616278388095
26 -0.71315267852671
27 0.74249277694181
28 -0.54210956389899
29 0.0
30 0.52474496611299
31 -0.071136960153848
 Sym=     15.1
 Ene=       2.3979
 Spin= Alpha
 Occup=    0.000000
1 0.024145676288734
2 0.042089228367406
3 -0.14352299632889
4 0.41808843916016
5 0.0
6 -0.15061740856213
7 -0.055875764615618
8 0.0
9 -0.14936705874074
10 -0.055411902564291
11 0.0
12 0.30916285503520
13 0.11469266534223
14 -0.29203657750836
15 0.093281420222239
16 0.19875515728612
17 0.0
18 0.0
19 -0.052392103499815
20 0.94232359808700
21 -1.34183694701719
22 0.43146920247634
23 0.0
24 0.029237075161953
25 -0.17415818060247
26 0.94232362228558
27 -1.34183696618333
28 0.43146922088196
29 0.0
30 -0.091422464001475
31 0.15108877861356
 Sym=     16.1
 Ene=       2.6102
 Spin= Alpha
 Occup=    0.000000
1 -0.060073611460242
2 -0.14044318747109
3 1.00828699536824
4 1.83750119456658
5 0.0
6 0.037144407030868
7 0.013779763637012
8 0.0
9 0.67586340397364
10 0.25073057543935
11 0.0
12 0.68754492737995
13 0.25506416263401
14 0.051514616207001
15 -0.042049167463552
16 -0.009465448743449
17 0.0
18 0.0
19 -0.016185343556329
20 0.43167017495451
21 -1.90342332796503
22 0.21676428636598
23 0.0
24 0.30188083137771
25 1.13815554874643
26 0.43167014736683
27 -1.90342324949689
28 0.21676426650269
29 0.0
30 0.97114286476104
31 -0.66589153267085
 Sym=     17.1
 Ene=       2.7685
 Spin= Alpha
 Occup=    0.000000
1 0.000000000946182
2 0.000000002232247
3 -0.000000016813578
4 -0.000000032447800
5 0.0
6 -0.005242460617845
7 0.014131453126128
8 0.0
9 -0.33746669273712
10 0.90966725611662
11 0.0
12 -0.25470763640385
13 0.68658388480864
14 -0.000000000017074
15 -0.13458287852129
16 0.13458287853836
17 0.0
18 0.0
19 0.18062469048499
20 0.72892171888419
21 -2.13095564929602
22 0.50209736773155
23 0.0
24 0.31443028025760
25 1.13017257491770
26 -0.72892174047804
27 2.13095572220104
28 -0.50209737749979
29 0.0
30 -0.97544954839110
31 0.65165537047992
 Sym=      5.2
 Ene=       3.5053
 Spin= Alpha
 Occup=    0.000000
1 0.0
2 0.0
3 0.0
4 0.0
5 0.023843964127454
6 0.0
7 0.0
8 -0.009419979493789
9 0.0
10 0.0
11 0.27523013393464
12 0.0
13 0.0
14 0.0
15 0.0
16 0.0
17 0.97256869765458
18 0.36080174584619
19 0.0
20 0.0
21 0.0
22 0.0
23 -0.36683802613127
24 0.0
25 0.0
26 0.0
27 0.0
28 0.0
29 -0.36683802370702
30 0.0
31 0.0
 Sym=      6.2
 Ene=       3.5721
 Spin= Alpha
 Occup=    0.000000
1 0.0
2 0.0
3 0.0
4 0.0
5 -0.000000000666625
6 0.0
7 0.0
8 0.000000000455560
9 0.0
10 0.0
11 -0.000000001480485
12 0.0
13 0.0
14 0.0
15 0.0
16 0.0
17 -0.36870688241803
18 0.99387759885516
19 0.0
20 0.0
21 0.0
22 0.0
23 -0.35117596794239
24 0.0
25 0.0
26 0.0
27 0.0
28 0.0
29 0.35117597198129
30 0.0
31 0.0
 Sym=     18.1
 Ene=       3.7381
 Spin= Alpha
 Occup=    0.000000
1 0.002617686919923
2 0.005333988932662
3 0.029349065347839
4 -0.86146100426044
5 0.0
6 -0.055371942647462
7 -0.020541781426614
8 0.0
9 -0.047381768999077
10 -0.017577600688151
11 0.0
12 -0.63436414228439
13 -0.23533523930725
14 0.47285462650920
15 -0.87852887126733
16 0.40567424475814
17 0.0
18 0.0
19 -0.63790375838703
20 0.027082936866313
21 0.57234239824935
22 -0.028385274768581
23 0.0
24 0.36573254555158
25 -0.31669647829980
26 0.027082936538396
27 0.57234239923085
28 -0.028385275569706
29 0.0
30 0.070694424759762
31 0.47860135184555
 Sym=     19.1
 Ene=       4.0353
 Spin= Alpha
 Occup=    0.000000
1 -0.024613693380246
2 -0.049670163822348
3 0.18782962110608
4 2.00080182714466
5 0.0
6 0.29746593670360
7 0.11035336348382
8 0.0
9 0.12383704992279
10 0.045940840137528
11 0.0
12 0.83998384138187
13 0.31161565472577
14 -0.99799025114073
15 0.15726529646603
16 0.84072495467470
17 0.0
18 0.0
19 -0.33949573940249
20 -0.35224868825768
21 -1.03747926897376
22 -0.059507230875857
23 0.0
24 0.25766792695081
25 0.69294452314380
26 -0.35224869006751
27 -1.03747926833875
28 -0.059507232196838
29 0.0
30 0.64726173382645
31 -0.35723538870431
 Sym=     20.1
 Ene=       4.2823
 Spin= Alpha
 Occup=    0.000000
1 -0.000000000000869
2 0.000000000018801
3 -0.000000000068962
4 0.000000003343250
5 0.0
6 -0.16265571207184
7 0.43845091505074
8 0.0
9 0.009756895184714
10 -0.026300454574036
11 0.0
12 -0.32063328794878
13 0.86429156414938
14 -0.000000001490046
15 -0.64894371830434
16 0.64894371979439
17 0.0
18 0.0
19 0.87095222315920
20 -0.44147744828143
21 -0.48386930404898
22 -0.24465246833005
23 0.0
24 0.15618206266057
25 0.55638153997578
26 0.44147744841916
27 0.48386929914239
28 0.24465246871298
29 0.0
30 -0.48126441633247
31 0.31990281998973
 Sym=      7.2
 Ene=       5.3305
 Spin= Alpha
 Occup=    0.000000
1 0.0
2 0.0
3 0.0
4 0.0
5 1.27075925813278
6 0.0
7 0.0
8 -1.37564984586049
9 0.0
10 0.0
11 0.47597941374660
12 0.0
13 0.0
14 0.0
15 0.0
16 0.0
17 -0.031263484586133
18 -0.011598069365961
19 0.0
20 0.0
21 0.0
22 0.0
23 0.065955685522464
24 0.0
25 0.0
26 0.0
27 0.0
28 0.0
29 0.065955685868825
30 0.0
31 0.0
 Sym=     21.1
 Ene=       5.7620
 Spin= Alpha
 Occup=    0.000000
1 0.024084720691403
2 0.045614672483137
3 -0.26313780706044
4 -1.05995185985004
5 0.0
6 1.18062477851274
7 0.43798600256596
8 0.0
9 -1.62554271404956
10 -0.60304083742775
11 0.0
12 0.073194541080329
13 0.027153576546060
14 0.37370848094369
15 -0.11924021728423
16 -0.25446826365946
17 0.0
18 0.0
19 0.067171990743625
20 0.30701880196654
21 0.52193499259829
22 0.014886474096957
23 0.0
24 -0.082071832346059
25 -0.54672387623240
26 0.30701880220024
27 0.52193499294473
28 0.014886474431576
29 0.0
30 -0.41878653378863
31 0.36091636421354
 Sym=     22.1
 Ene=       6.2580
 Spin= Alpha
 Occup=    0.000000
1 -0.000000000021390
2 0.000000000011120
3 -0.000000000189151
4 -0.000000000020840
5 0.0
6 0.43636213264549
7 -1.17624751369637
8 0.0
9 -0.71529709121445
10 1.92813803585815
11 0.0
12 0.045515241222442
13 -0.12268981403087
14 0.000000000139520
15 -0.38323165421234
16 0.38323165407282
17 0.0
18 0.0
19 0.51433807278008
20 -0.39809670609928
21 -0.51208355157705
22 0.14557793448626
23 0.0
24 0.25656703072026
25 0.67859371467885
26 0.39809670681091
27 0.51208355097868
28 -0.14557793424642
29 0.0
30 -0.63706763509728
31 0.34707477572221
 Sym=     23.1
 Ene=      51.5750
 Spin= Alpha
 Occup=    0.000000
1 -2.24731788787684
2 2.33737785487165
3 -0.27406502849964
4 0.056461724162995
5 0.0
6 0.018132501546763
7 0.006726761963432
8 0.0
9 -0.072370563516613
10 -0.026847898107969
11 0.0
12 -0.014759174851922
13 -0.005475331455545
14 0.026082173094466
15 -0.005709848750676
16 -0.020372324343790
17 0.0
18 0.0
19 0.007283309130528
20 0.008747275701000
21 0.077727420512064
22 -0.031125747479555
23 0.0
24 -0.022296133937649
25 -0.078343161228593
26 0.008747275687996
27 0.077727420520804
28 -0.031125747491657
29 0.0
30 -0.067996791663509
31 0.044846458316179
 [FREQ]
      0.00
      0.00
      0.00
      0.00
      0.00
      0.00
   1534.55
   3044.73
   4191.24
 [FR-COORD]
O          0.0000000000       -0.1343590082       -0.1296734964
H          0.0000000000        0.3830245851        1.5715771847
H          0.0000000000        1.3673948863       -1.0818682782
 [FR-NORM-COORD]
 Vibration                    1
         -0.00000000          0.16950406          0.01023406
         -0.30365675          0.26914419         -0.02006845