 Entering Gaussian System, Link 0=g16
 Input=ch3f.com
 Output=ch3f.log
 Initial command:
 /usr/local/g16/l1.exe "/scratch/lme/Gau-1238368.inp" -scrdir="/scratch/lme/"
 Entering Link 1 = /usr/local/g16/l1.exe PID=   1238370.
  
 Copyright (c) 1988,1990,1992,1993,1995,1998,2003,2009,2016,
            Gaussian, Inc.  All Rights Reserved.
  
 This is part of the Gaussian(R) 16 program.  It is based on
 the Gaussian(R) 09 system (copyright 2009, Gaussian, Inc.),
 the Gaussian(R) 03 system (copyright 2003, Gaussian, Inc.),
 the Gaussian(R) 98 system (copyright 1998, Gaussian, Inc.),
 the Gaussian(R) 94 system (copyright 1995, Gaussian, Inc.),
 the Gaussian 92(TM) system (copyright 1992, Gaussian, Inc.),
 the Gaussian 90(TM) system (copyright 1990, Gaussian, Inc.),
 the Gaussian 88(TM) system (copyright 1988, Gaussian, Inc.),
 the Gaussian 86(TM) system (copyright 1986, Carnegie Mellon
 University), and the Gaussian 82(TM) system (copyright 1983,
 Carnegie Mellon University). Gaussian is a federally registered
 trademark of Gaussian, Inc.
  
 This software contains proprietary and confidential information,
 including trade secrets, belonging to Gaussian, Inc.
  
 This software is provided under written license and may be
 used, copied, transmitted, or stored only in accord with that
 written license.
  
 The following legend is applicable only to US Government
 contracts under FAR:
  
                    RESTRICTED RIGHTS LEGEND
  
 Use, reproduction and disclosure by the US Government is
 subject to restrictions as set forth in subparagraphs (a)
 and (c) of the Commercial Computer Software - Restricted
 Rights clause in FAR 52.227-19.
  
 Gaussian, Inc.
 340 Quinnipiac St., Bldg. 40, Wallingford CT 06492
  
  
 ---------------------------------------------------------------
 Warning -- This program may not be used in any manner that
 competes with the business of Gaussian, Inc. or will provide
 assistance to any competitor of Gaussian, Inc.  The licensee
 of this program is prohibited from giving any competitor of
 Gaussian, Inc. access to this program.  By using this program,
 the user acknowledges that Gaussian, Inc. is engaged in the
 business of creating and licensing software in the field of
 computational chemistry and represents and warrants to the
 licensee that it is not a competitor of Gaussian, Inc. and that
 it will not use this program in any manner prohibited above.
 ---------------------------------------------------------------
  

 Cite this work as:
 Gaussian 16, Revision A.03,
 M. J. Frisch, G. W. Trucks, H. B. Schlegel, G. E. Scuseria, 
 M. A. Robb, J. R. Cheeseman, G. Scalmani, V. Barone, 
 G. A. Petersson, H. Nakatsuji, X. Li, M. Caricato, A. V. Marenich, 
 J. Bloino, B. G. Janesko, R. Gomperts, B. Mennucci, H. P. Hratchian, 
 J. V. Ortiz, A. F. Izmaylov, J. L. Sonnenberg, D. Williams-Young, 
 F. Ding, F. Lipparini, F. Egidi, J. Goings, B. Peng, A. Petrone, 
 T. Henderson, D. Ranasinghe, V. G. Zakrzewski, J. Gao, N. Rega, 
 G. Zheng, W. Liang, M. Hada, M. Ehara, K. Toyota, R. Fukuda, 
 J. Hasegawa, M. Ishida, T. Nakajima, Y. Honda, O. Kitao, H. Nakai, 
 T. Vreven, K. Throssell, J. A. Montgomery, Jr., J. E. Peralta, 
 F. Ogliaro, M. J. Bearpark, J. J. Heyd, E. N. Brothers, K. N. Kudin, 
 V. N. Staroverov, T. A. Keith, R. Kobayashi, J. Normand, 
 K. Raghavachari, A. P. Rendell, J. C. Burant, S. S. Iyengar, 
 J. Tomasi, M. Cossi, J. M. Millam, M. Klene, C. Adamo, R. Cammi, 
 J. W. Ochterski, R. L. Martin, K. Morokuma, O. Farkas, 
 J. B. Foresman, and D. J. Fox, Gaussian, Inc., Wallingford CT, 2016.
 
 ******************************************
 Gaussian 16:  ES64L-G16RevA.03 25-Dec-2016
                11-Sep-2024 
 ******************************************
 %chk=ch3f.chk
 --------------------------
 #p opt freq hf/6-311g(d,p)
 --------------------------
 1/18=20,19=15,38=1/1,3;
 2/9=110,12=2,17=6,18=5,40=1/2;
 3/5=4,6=6,7=101,11=9,25=1,30=1,71=1/1,2,3;
 4//1;
 5/5=2,38=5/2;
 6/7=2,8=2,9=2,10=2,28=1/1;
 7//1,2,3,16;
 1/18=20,19=15/3(2);
 2/9=110/2;
 99//99;
 2/9=110/2;
 3/5=4,6=6,7=101,11=9,25=1,30=1,71=1/1,2,3;
 4/5=5,16=3,69=1/1;
 5/5=2,38=5/2;
 7//1,2,3,16;
 1/18=20,19=15/3(-5);
 2/9=110/2;
 6/7=2,8=2,9=2,10=2,19=2,28=1/1;
 99/9=1/99;
 Leave Link    1 at Wed Sep 11 14:07:49 2024, MaxMem=           0 cpu:               0.0 elap:               0.0
 (Enter /usr/local/g16/l101.exe)
 ----------------
 CH3F Calculation
 ----------------
 Symbolic Z-matrix:
 Charge =  0 Multiplicity = 1
 F1
 C1                   F1   r1
 H1                   C1   r2       F1   a1
 H2                   C1   r2       F1   a1       H1    120.     0
 H3                   C1   r2       F1   a1       H1   -120.     0
       Variables:
  r1                    1.404                    
  r2                    1.0795                   
  a1                  109.3911                   
 
 ITRead=  0  0  0  0  0
 MicOpt= -1 -1 -1 -1 -1
 NAtoms=      5 NQM=        5 NQMF=       0 NMMI=      0 NMMIF=      0
                NMic=       0 NMicF=      0.
                    Isotopes and Nuclear Properties:
 (Nuclear quadrupole moments (NQMom) in fm**2, nuclear magnetic moments (NMagM)
  in nuclear magnetons)

  Atom         1           2           3           4           5
 IAtWgt=          19          12           1           1           1
 AtmWgt=  18.9984033  12.0000000   1.0078250   1.0078250   1.0078250
 NucSpn=           1           0           1           1           1
 AtZEff=  -0.0000000  -0.0000000  -0.0000000  -0.0000000  -0.0000000
 NQMom=    0.0000000   0.0000000   0.0000000   0.0000000   0.0000000
 NMagM=    2.6288670   0.0000000   2.7928460   2.7928460   2.7928460
 AtZNuc=   9.0000000   6.0000000   1.0000000   1.0000000   1.0000000
 Leave Link  101 at Wed Sep 11 14:07:49 2024, MaxMem=   104857600 cpu:               0.1 elap:               0.1
 (Enter /usr/local/g16/l103.exe)

 GradGradGradGradGradGradGradGradGradGradGradGradGradGradGradGradGradGrad
 Berny optimization.
 Initialization pass.
                           ----------------------------
                           !    Initial Parameters    !
                           ! (Angstroms and Degrees)  !
 --------------------------                            --------------------------
 ! Name  Definition              Value          Derivative Info.                !
 --------------------------------------------------------------------------------
 ! R1    R(1,2)                  1.404          estimate D2E/DX2                !
 ! R2    R(2,3)                  1.0795         estimate D2E/DX2                !
 ! R3    R(2,4)                  1.0795         estimate D2E/DX2                !
 ! R4    R(2,5)                  1.0795         estimate D2E/DX2                !
 ! A1    A(1,2,3)              109.3911         estimate D2E/DX2                !
 ! A2    A(1,2,4)              109.3911         estimate D2E/DX2                !
 ! A3    A(1,2,5)              109.3911         estimate D2E/DX2                !
 ! A4    A(3,2,4)              109.5512         estimate D2E/DX2                !
 ! A5    A(3,2,5)              109.5512         estimate D2E/DX2                !
 ! A6    A(4,2,5)              109.5512         estimate D2E/DX2                !
 ! D1    D(3,2,5,4)            120.1965         estimate D2E/DX2                !
 --------------------------------------------------------------------------------
 Trust Radius=3.00D-01 FncErr=1.00D-07 GrdErr=1.00D-07 EigMax=2.50D+02 EigMin=1.00D-04
 Number of steps in this run=     21 maximum allowed number of steps=    100.
 GradGradGradGradGradGradGradGradGradGradGradGradGradGradGradGradGradGrad

 Leave Link  103 at Wed Sep 11 14:07:49 2024, MaxMem=   104857600 cpu:               0.0 elap:               0.0
 (Enter /usr/local/g16/l202.exe)
                          Input orientation:                          
 ---------------------------------------------------------------------
 Center     Atomic      Atomic             Coordinates (Angstroms)
 Number     Number       Type             X           Y           Z
 ---------------------------------------------------------------------
      1          9           0        0.000000    0.000000    0.000000
      2          6           0        0.000000    0.000000    1.404000
      3          1           0        1.018265    0.000000    1.762410
      4          1           0       -0.509132    0.881843    1.762410
      5          1           0       -0.509132   -0.881843    1.762410
 ---------------------------------------------------------------------
                    Distance matrix (angstroms):
                    1          2          3          4          5
     1  F    0.000000
     2  C    1.404000   0.000000
     3  H    2.035424   1.079500   0.000000
     4  H    2.035424   1.079500   1.763686   0.000000
     5  H    2.035424   1.079500   1.763686   1.763686   0.000000
 Stoichiometry    CH3F
 Framework group  C3V[C3(CF),3SGV(H)]
 Deg. of freedom     3
 Full point group                 C3V     NOp   6
 Largest Abelian subgroup         CS      NOp   2
 Largest concise Abelian subgroup CS      NOp   2
                         Standard orientation:                         
 ---------------------------------------------------------------------
 Center     Atomic      Atomic             Coordinates (Angstroms)
 Number     Number       Type             X           Y           Z
 ---------------------------------------------------------------------
      1          9           0        0.000000    0.000000    0.761735
      2          6           0        0.000000    0.000000   -0.642265
      3          1           0        0.000000    1.018265   -1.000675
      4          1           0        0.881843   -0.509132   -1.000675
      5          1           0       -0.881843   -0.509132   -1.000675
 ---------------------------------------------------------------------
 Rotational constants (GHZ):         161.2091014          25.0711601          25.0711601
 Leave Link  202 at Wed Sep 11 14:07:49 2024, MaxMem=   104857600 cpu:               0.0 elap:               0.0
 (Enter /usr/local/g16/l301.exe)
 Standard basis: 6-311G(d,p) (5D, 7F)
 Ernie: Thresh=  0.10000D-02 Tol=  0.10000D-05 Strict=F.
 There are    39 symmetry adapted cartesian basis functions of A'  symmetry.
 There are    17 symmetry adapted cartesian basis functions of A"  symmetry.
 There are    37 symmetry adapted basis functions of A'  symmetry.
 There are    17 symmetry adapted basis functions of A"  symmetry.
    54 basis functions,    88 primitive gaussians,    56 cartesian basis functions
     9 alpha electrons        9 beta electrons
       nuclear repulsion energy        37.0963582230 Hartrees.
 IExCor=    0 DFT=F Ex=HF Corr=None ExCW=0 ScaHFX=  1.000000
 ScaDFX=  1.000000  1.000000  1.000000  1.000000 ScalE2=  1.000000  1.000000
 IRadAn=      5 IRanWt=     -1 IRanGd=            0 ICorTp=0 IEmpDi=  4
 NAtoms=    5 NActive=    5 NUniq=    3 SFac= 2.78D+00 NAtFMM=   60 NAOKFM=F Big=F
 Integral buffers will be    131072 words long.
 Raffenetti 1 integral format.
 Two-electron integral symmetry is turned on.
 Leave Link  301 at Wed Sep 11 14:07:49 2024, MaxMem=   104857600 cpu:               0.0 elap:               0.0
 (Enter /usr/local/g16/l302.exe)
 NPDir=0 NMtPBC=     1 NCelOv=     1 NCel=       1 NClECP=     1 NCelD=      1
         NCelK=      1 NCelE2=     1 NClLst=     1 CellRange=     0.0.
 One-electron integrals computed using PRISM.
 One-electron integral symmetry used in STVInt
 NBasis=    54 RedAO= T EigKep=  1.22D-02  NBF=    37    17
 NBsUse=    54 1.00D-06 EigRej= -1.00D+00 NBFU=    37    17
 Leave Link  302 at Wed Sep 11 14:07:49 2024, MaxMem=   104857600 cpu:               0.1 elap:               0.1
 (Enter /usr/local/g16/l303.exe)
 DipDrv:  MaxL=1.
 Leave Link  303 at Wed Sep 11 14:07:49 2024, MaxMem=   104857600 cpu:               0.0 elap:               0.0
 (Enter /usr/local/g16/l401.exe)
 ExpMin= 1.03D-01 ExpMax= 1.14D+04 ExpMxC= 1.72D+03 IAcc=3 IRadAn=         5 AccDes= 0.00D+00
 Harris functional with IExCor=  205 and IRadAn=       5 diagonalized for initial guess.
 HarFok:  IExCor=  205 AccDes= 0.00D+00 IRadAn=         5 IDoV= 1 UseB2=F ITyADJ=14
 ICtDFT=  3500011 ScaDFX=  1.000000  1.000000  1.000000  1.000000
 FoFCou: FMM=F IPFlag=           0 FMFlag=      100000 FMFlg1=           0
         NFxFlg=           0 DoJE=T BraDBF=F KetDBF=T FulRan=T
         wScrn=  0.000000 ICntrl=       500 IOpCl=  0 I1Cent=   200000004 NGrid=           0
         NMat0=    1 NMatS0=      1 NMatT0=    0 NMatD0=    1 NMtDS0=    0 NMtDT0=    0
 Petite list used in FoFCou.
 Harris En= -139.154217189881    
 JPrj=0 DoOrth=F DoCkMO=F.
 Initial guess orbital symmetries:
       Occupied  (A1) (A1) (A1) (A1) (A1) (E) (E) (E) (E)
       Virtual   (A1) (A1) (E) (E) (E) (E) (A1) (A1) (E) (E) (A1)
                 (E) (E) (A1) (E) (E) (A2) (E) (E) (A1) (A1) (E)
                 (E) (A1) (E) (E) (A1) (E) (E) (E) (E) (A1) (A1)
                 (E) (E) (E) (E) (E) (E) (A1) (E) (E) (A1) (A1)
                 (A1)
 The electronic state of the initial guess is 1-A1.
 Leave Link  401 at Wed Sep 11 14:07:49 2024, MaxMem=   104857600 cpu:               0.2 elap:               0.2
 (Enter /usr/local/g16/l502.exe)
 Keep R1 ints in memory in symmetry-blocked form, NReq=1947778.
 FoFCou: FMM=F IPFlag=           0 FMFlag=           0 FMFlg1=           0
         NFxFlg=           0 DoJE=F BraDBF=F KetDBF=F FulRan=T
         wScrn=  0.000000 ICntrl=       600 IOpCl=  0 I1Cent=           0 NGrid=           0
         NMat0=    1 NMatS0=   1485 NMatT0=    0 NMatD0=    1 NMtDS0=    0 NMtDT0=    0
 Petite list used in FoFCou.
 Closed shell SCF:
 Using DIIS extrapolation, IDIIS=  1040.
 NGot=   104857600 LenX=   104281498 LenY=   104277921
 Requested convergence on RMS density matrix=1.00D-08 within 128 cycles.
 Requested convergence on MAX density matrix=1.00D-06.
 Requested convergence on             energy=1.00D-06.
 No special actions if energy rises.

 Cycle   1  Pass 1  IDiag  1:
 E= -139.005656604307    
 DIIS: error= 8.14D-02 at cycle   1 NSaved=   1.
 NSaved= 1 IEnMin= 1 EnMin= -139.005656604307     IErMin= 1 ErrMin= 8.14D-02
 ErrMax= 8.14D-02  0.00D+00 EMaxC= 1.00D-01 BMatC= 1.92D-01 BMatP= 1.92D-01
 IDIUse=3 WtCom= 1.86D-01 WtEn= 8.14D-01
 Coeff-Com:  0.100D+01
 Coeff-En:   0.100D+01
 Coeff:      0.100D+01
 Gap=     0.768 Goal=   None    Shift=    0.000
 GapD=    0.768 DampG=2.000 DampE=0.500 DampFc=1.0000 IDamp=-1.
 RMSDP=3.20D-03 MaxDP=7.47D-02              OVMax= 7.51D-02

 Cycle   2  Pass 1  IDiag  1:
 E= -139.070808453558     Delta-E=       -0.065151849252 Rises=F Damp=F
 DIIS: error= 1.25D-02 at cycle   2 NSaved=   2.
 NSaved= 2 IEnMin= 2 EnMin= -139.070808453558     IErMin= 2 ErrMin= 1.25D-02
 ErrMax= 1.25D-02  0.00D+00 EMaxC= 1.00D-01 BMatC= 8.37D-03 BMatP= 1.92D-01
 IDIUse=3 WtCom= 8.75D-01 WtEn= 1.25D-01
 Coeff-Com:  0.792D-01 0.921D+00
 Coeff-En:   0.000D+00 0.100D+01
 Coeff:      0.693D-01 0.931D+00
 Gap=     0.703 Goal=   None    Shift=    0.000
 RMSDP=1.18D-03 MaxDP=3.00D-02 DE=-6.52D-02 OVMax= 2.07D-02

 Cycle   3  Pass 1  IDiag  1:
 E= -139.076433620130     Delta-E=       -0.005625166571 Rises=F Damp=F
 DIIS: error= 3.68D-03 at cycle   3 NSaved=   3.
 NSaved= 3 IEnMin= 3 EnMin= -139.076433620130     IErMin= 3 ErrMin= 3.68D-03
 ErrMax= 3.68D-03  0.00D+00 EMaxC= 1.00D-01 BMatC= 5.64D-04 BMatP= 8.37D-03
 IDIUse=3 WtCom= 9.63D-01 WtEn= 3.68D-02
 Coeff-Com: -0.142D-01 0.174D+00 0.840D+00
 Coeff-En:   0.000D+00 0.000D+00 0.100D+01
 Coeff:     -0.137D-01 0.168D+00 0.846D+00
 Gap=     0.689 Goal=   None    Shift=    0.000
 RMSDP=2.44D-04 MaxDP=3.79D-03 DE=-5.63D-03 OVMax= 5.34D-03

 Cycle   4  Pass 1  IDiag  1:
 E= -139.076870796211     Delta-E=       -0.000437176081 Rises=F Damp=F
 DIIS: error= 4.47D-04 at cycle   4 NSaved=   4.
 NSaved= 4 IEnMin= 4 EnMin= -139.076870796211     IErMin= 4 ErrMin= 4.47D-04
 ErrMax= 4.47D-04  0.00D+00 EMaxC= 1.00D-01 BMatC= 6.98D-06 BMatP= 5.64D-04
 IDIUse=3 WtCom= 9.96D-01 WtEn= 4.47D-03
 Coeff-Com: -0.358D-03-0.179D-01-0.986D-02 0.103D+01
 Coeff-En:   0.000D+00 0.000D+00 0.000D+00 0.100D+01
 Coeff:     -0.356D-03-0.179D-01-0.981D-02 0.103D+01
 Gap=     0.689 Goal=   None    Shift=    0.000
 RMSDP=5.93D-05 MaxDP=6.18D-04 DE=-4.37D-04 OVMax= 1.14D-03

 Cycle   5  Pass 1  IDiag  1:
 E= -139.076879682370     Delta-E=       -0.000008886159 Rises=F Damp=F
 DIIS: error= 1.62D-04 at cycle   5 NSaved=   5.
 NSaved= 5 IEnMin= 5 EnMin= -139.076879682370     IErMin= 5 ErrMin= 1.62D-04
 ErrMax= 1.62D-04  0.00D+00 EMaxC= 1.00D-01 BMatC= 1.28D-06 BMatP= 6.98D-06
 IDIUse=3 WtCom= 9.98D-01 WtEn= 1.62D-03
 Coeff-Com:  0.637D-03-0.162D-01-0.548D-01 0.255D+00 0.815D+00
 Coeff-En:   0.000D+00 0.000D+00 0.000D+00 0.000D+00 0.100D+01
 Coeff:      0.636D-03-0.162D-01-0.547D-01 0.255D+00 0.815D+00
 Gap=     0.689 Goal=   None    Shift=    0.000
 RMSDP=1.94D-05 MaxDP=3.29D-04 DE=-8.89D-06 OVMax= 2.87D-04

 Cycle   6  Pass 1  IDiag  1:
 E= -139.076880809456     Delta-E=       -0.000001127086 Rises=F Damp=F
 DIIS: error= 3.48D-05 at cycle   6 NSaved=   6.
 NSaved= 6 IEnMin= 6 EnMin= -139.076880809456     IErMin= 6 ErrMin= 3.48D-05
 ErrMax= 3.48D-05  0.00D+00 EMaxC= 1.00D-01 BMatC= 5.93D-08 BMatP= 1.28D-06
 IDIUse=1 WtCom= 1.00D+00 WtEn= 0.00D+00
 Coeff-Com:  0.203D-03-0.152D-02-0.796D-02-0.531D-01 0.106D+00 0.956D+00
 Coeff:      0.203D-03-0.152D-02-0.796D-02-0.531D-01 0.106D+00 0.956D+00
 Gap=     0.689 Goal=   None    Shift=    0.000
 RMSDP=6.47D-06 MaxDP=6.88D-05 DE=-1.13D-06 OVMax= 1.15D-04

 Cycle   7  Pass 1  IDiag  1:
 E= -139.076880890781     Delta-E=       -0.000000081325 Rises=F Damp=F
 DIIS: error= 4.52D-06 at cycle   7 NSaved=   7.
 NSaved= 7 IEnMin= 7 EnMin= -139.076880890781     IErMin= 7 ErrMin= 4.52D-06
 ErrMax= 4.52D-06  0.00D+00 EMaxC= 1.00D-01 BMatC= 1.44D-09 BMatP= 5.93D-08
 IDIUse=1 WtCom= 1.00D+00 WtEn= 0.00D+00
 Coeff-Com: -0.511D-04 0.680D-03 0.306D-02 0.633D-02-0.492D-01-0.218D+00
 Coeff-Com:  0.126D+01
 Coeff:     -0.511D-04 0.680D-03 0.306D-02 0.633D-02-0.492D-01-0.218D+00
 Coeff:      0.126D+01
 Gap=     0.689 Goal=   None    Shift=    0.000
 RMSDP=1.48D-06 MaxDP=1.68D-05 DE=-8.13D-08 OVMax= 2.59D-05

 Cycle   8  Pass 1  IDiag  1:
 E= -139.076880893894     Delta-E=       -0.000000003113 Rises=F Damp=F
 DIIS: error= 1.27D-06 at cycle   8 NSaved=   8.
 NSaved= 8 IEnMin= 8 EnMin= -139.076880893894     IErMin= 8 ErrMin= 1.27D-06
 ErrMax= 1.27D-06  0.00D+00 EMaxC= 1.00D-01 BMatC= 6.99D-11 BMatP= 1.44D-09
 IDIUse=1 WtCom= 1.00D+00 WtEn= 0.00D+00
 Coeff-Com:  0.129D-04-0.215D-03-0.971D-03-0.320D-03 0.143D-01 0.610D-01
 Coeff-Com: -0.495D+00 0.142D+01
 Coeff:      0.129D-04-0.215D-03-0.971D-03-0.320D-03 0.143D-01 0.610D-01
 Coeff:     -0.495D+00 0.142D+01
 Gap=     0.689 Goal=   None    Shift=    0.000
 RMSDP=2.49D-07 MaxDP=2.07D-06 DE=-3.11D-09 OVMax= 7.04D-06

 Cycle   9  Pass 1  IDiag  1:
 E= -139.076880894050     Delta-E=       -0.000000000156 Rises=F Damp=F
 DIIS: error= 2.62D-07 at cycle   9 NSaved=   9.
 NSaved= 9 IEnMin= 9 EnMin= -139.076880894050     IErMin= 9 ErrMin= 2.62D-07
 ErrMax= 2.62D-07  0.00D+00 EMaxC= 1.00D-01 BMatC= 2.18D-12 BMatP= 6.99D-11
 IDIUse=1 WtCom= 1.00D+00 WtEn= 0.00D+00
 Coeff-Com: -0.217D-05 0.444D-04 0.201D-03-0.285D-03-0.268D-02-0.847D-02
 Coeff-Com:  0.100D+00-0.451D+00 0.136D+01
 Coeff:     -0.217D-05 0.444D-04 0.201D-03-0.285D-03-0.268D-02-0.847D-02
 Coeff:      0.100D+00-0.451D+00 0.136D+01
 Gap=     0.689 Goal=   None    Shift=    0.000
 RMSDP=4.04D-08 MaxDP=4.02D-07 DE=-1.56D-10 OVMax= 1.35D-06

 Cycle  10  Pass 1  IDiag  1:
 E= -139.076880894055     Delta-E=       -0.000000000005 Rises=F Damp=F
 DIIS: error= 1.68D-08 at cycle  10 NSaved=  10.
 NSaved=10 IEnMin=10 EnMin= -139.076880894055     IErMin=10 ErrMin= 1.68D-08
 ErrMax= 1.68D-08  0.00D+00 EMaxC= 1.00D-01 BMatC= 1.79D-14 BMatP= 2.18D-12
 IDIUse=1 WtCom= 1.00D+00 WtEn= 0.00D+00
 Coeff-Com:  0.318D-06-0.717D-05-0.339D-04 0.712D-04 0.410D-03 0.124D-02
 Coeff-Com: -0.168D-01 0.855D-01-0.315D+00 0.124D+01
 Coeff:      0.318D-06-0.717D-05-0.339D-04 0.712D-04 0.410D-03 0.124D-02
 Coeff:     -0.168D-01 0.855D-01-0.315D+00 0.124D+01
 Gap=     0.689 Goal=   None    Shift=    0.000
 RMSDP=3.59D-09 MaxDP=4.01D-08 DE=-5.14D-12 OVMax= 8.30D-08

 SCF Done:  E(RHF) =  -139.076880894     A.U. after   10 cycles
            NFock= 10  Conv=0.36D-08     -V/T= 2.0003
 KE= 1.390393511433D+02 PE=-4.050120953189D+02 EE= 8.979950505860D+01
 Leave Link  502 at Wed Sep 11 14:07:49 2024, MaxMem=   104857600 cpu:               0.2 elap:               0.2
 (Enter /usr/local/g16/l601.exe)
 Copying SCF densities to generalized density rwf, IOpCl= 0 IROHF=0.

 **********************************************************************

            Population analysis using the SCF density.

 **********************************************************************

 Orbital symmetries:
       Occupied  (A1) (A1) (A1) (A1) (E) (E) (A1) (E) (E)
       Virtual   (A1) (E) (E) (A1) (E) (E) (A1) (A1) (E) (E) (A1)
                 (E) (E) (A1) (E) (E) (A2) (E) (E) (A1) (E) (E)
                 (A1) (A1) (E) (E) (A1) (E) (E) (E) (E) (A1) (A1)
                 (E) (E) (E) (E) (E) (E) (A1) (E) (E) (A1) (A1)
                 (A1)
 The electronic state is 1-A1.
 Alpha  occ. eigenvalues --  -26.26072 -11.30389  -1.56892  -0.95731  -0.68485
 Alpha  occ. eigenvalues --   -0.68485  -0.66262  -0.53185  -0.53185
 Alpha virt. eigenvalues --    0.15745   0.21866   0.21866   0.26647   0.45354
 Alpha virt. eigenvalues --    0.45354   0.65143   0.68833   0.77068   0.77068
 Alpha virt. eigenvalues --    0.87674   1.16971   1.16971   1.22112   1.44697
 Alpha virt. eigenvalues --    1.44697   1.69821   1.70489   1.70489   1.83227
 Alpha virt. eigenvalues --    1.94075   1.94075   1.97020   2.27662   2.40329
 Alpha virt. eigenvalues --    2.40329   2.63867   2.67728   2.67728   2.84216
 Alpha virt. eigenvalues --    2.84216   3.07157   3.40007   4.02762   4.02762
 Alpha virt. eigenvalues --    4.29360   4.29360   4.54864   4.54864   5.21373
 Alpha virt. eigenvalues --    6.76333   6.76333   7.07870  25.00994  68.73866
          Condensed to atoms (all electrons):
               1          2          3          4          5
     1  F    9.244063   0.194219  -0.021279  -0.021279  -0.021279
     2  C    0.194219   4.439850   0.412535   0.412535   0.412535
     3  H   -0.021279   0.412535   0.591451  -0.032373  -0.032373
     4  H   -0.021279   0.412535  -0.032373   0.591451  -0.032373
     5  H   -0.021279   0.412535  -0.032373  -0.032373   0.591451
 Mulliken charges:
               1
     1  F   -0.374443
     2  C    0.128326
     3  H    0.082039
     4  H    0.082039
     5  H    0.082039
 Sum of Mulliken charges =   0.00000
 Mulliken charges with hydrogens summed into heavy atoms:
               1
     1  F   -0.374443
     2  C    0.374443
 Electronic spatial extent (au):  <R**2>=             75.7198
 Charge=             -0.0000 electrons
 Dipole moment (field-independent basis, Debye):
    X=              0.0000    Y=             -0.0000    Z=             -2.2765  Tot=              2.2765
 Quadrupole moment (field-independent basis, Debye-Ang):
   XX=            -11.6322   YY=            -11.6322   ZZ=            -12.2403
   XY=             -0.0000   XZ=             -0.0000   YZ=              0.0000
 Traceless Quadrupole moment (field-independent basis, Debye-Ang):
   XX=              0.2027   YY=              0.2027   ZZ=             -0.4054
   XY=             -0.0000   XZ=             -0.0000   YZ=              0.0000
 Octapole moment (field-independent basis, Debye-Ang**2):
  XXX=              0.0000  YYY=              0.5853  ZZZ=              3.5934  XYY=              0.0000
  XXY=             -0.5853  XXZ=              1.1054  XZZ=              0.0000  YZZ=             -0.0000
  YYZ=              1.1054  XYZ=             -0.0000
 Hexadecapole moment (field-independent basis, Debye-Ang**3):
 XXXX=            -15.7726 YYYY=            -15.7726 ZZZZ=            -50.5990 XXXY=              0.0000
 XXXZ=              0.0000 YYYX=              0.0000 YYYZ=             -0.7139 ZZZX=              0.0000
 ZZZY=             -0.0000 XXYY=             -5.2575 XXZZ=            -10.8522 YYZZ=            -10.8522
 XXYZ=              0.7139 YYXZ=             -0.0000 ZZXY=             -0.0000
 N-N= 3.709635822297D+01 E-N=-4.050120952428D+02  KE= 1.390393511433D+02
 Symmetry A'   KE= 1.306320632029D+02
 Symmetry A"   KE= 8.407287940348D+00
 No NMR shielding tensors so no spin-rotation constants.
 Leave Link  601 at Wed Sep 11 14:07:50 2024, MaxMem=   104857600 cpu:               0.1 elap:               0.1
 (Enter /usr/local/g16/l701.exe)
 ... and contract with generalized density number  0.
 Compute integral first derivatives.
 Leave Link  701 at Wed Sep 11 14:07:50 2024, MaxMem=   104857600 cpu:               0.1 elap:               0.1
 (Enter /usr/local/g16/l702.exe)
 L702 exits ... SP integral derivatives will be done elsewhere.
 Leave Link  702 at Wed Sep 11 14:07:50 2024, MaxMem=   104857600 cpu:               0.0 elap:               0.0
 (Enter /usr/local/g16/l703.exe)
 Integral derivatives from FoFJK, PRISM(SPDF).
 Compute integral first derivatives, UseDBF=F ICtDFT=           0.
 Calling FoFJK, ICntrl=      2127 FMM=F ISym2X=1 I1Cent= 0 IOpClX= 0 NMat=1 NMatS=1 NMatT=0.
 FoFJK:  IHMeth= 1 ICntrl=    2127 DoSepK=F KAlg= 0 I1Cent=           0 FoldK=F
 IRaf=         0 NMat=       1 IRICut=       1 DoRegI=T DoRafI=F ISym2E= 1 IDoP0=0 IntGTp=1.
 FoFCou: FMM=F IPFlag=           0 FMFlag=      100000 FMFlg1=         800
         NFxFlg=           0 DoJE=F BraDBF=F KetDBF=F FulRan=T
         wScrn=  0.000000 ICntrl=      2127 IOpCl=  0 I1Cent=           0 NGrid=           0
         NMat0=    1 NMatS0=      1 NMatT0=    0 NMatD0=    1 NMtDS0=    0 NMtDT0=    0
 Petite list used in FoFCou.
 Leave Link  703 at Wed Sep 11 14:07:50 2024, MaxMem=   104857600 cpu:               0.2 elap:               0.2
 (Enter /usr/local/g16/l716.exe)
 Dipole        = 0.00000000D+00 0.00000000D+00-8.95633138D-01
 ***** Axes restored to original set *****
 -------------------------------------------------------------------
 Center     Atomic                   Forces (Hartrees/Bohr)
 Number     Number              X              Y              Z
 -------------------------------------------------------------------
      1        9           0.000000000   -0.000000000    0.031037507
      2        6          -0.000000000   -0.000000000   -0.021386958
      3        1           0.002512563    0.000000000   -0.003216850
      4        1          -0.001256282    0.002175943   -0.003216850
      5        1          -0.001256282   -0.002175943   -0.003216850
 -------------------------------------------------------------------
 Cartesian Forces:  Max     0.031037507 RMS     0.009901892
 Leave Link  716 at Wed Sep 11 14:07:50 2024, MaxMem=   104857600 cpu:               0.0 elap:               0.0
 (Enter /usr/local/g16/l103.exe)

 GradGradGradGradGradGradGradGradGradGradGradGradGradGradGradGradGradGrad
 Berny optimization.
 FormGI is forming the generalized inverse of G from B-inverse, IUseBI=4.
 Internal  Forces:  Max     0.031037507 RMS     0.009630687
 Search for a local minimum.
 Step number   1 out of a maximum of   21
 All quantities printed in internal units (Hartrees-Bohrs-Radians)
 RMS Force = .96307D-02 SwitMx=.10000D-02 MixMth= 1
 Mixed Optimization -- RFO/linear search
 Second derivative matrix not updated -- first step.
 The second derivative matrix:
                          R1        R2        R3        R4        A1
           R1           0.44964
           R2           0.00000   0.36055
           R3           0.00000   0.00000   0.36055
           R4           0.00000   0.00000   0.00000   0.36055
           A1           0.00000   0.00000   0.00000   0.00000   0.16000
           A2           0.00000   0.00000   0.00000   0.00000   0.00000
           A3           0.00000   0.00000   0.00000   0.00000   0.00000
           A4           0.00000   0.00000   0.00000   0.00000   0.00000
           A5           0.00000   0.00000   0.00000   0.00000   0.00000
           A6           0.00000   0.00000   0.00000   0.00000   0.00000
           D1           0.00000   0.00000   0.00000   0.00000   0.00000
                          A2        A3        A4        A5        A6
           A2           0.16000
           A3           0.00000   0.16000
           A4           0.00000   0.00000   0.16000
           A5           0.00000   0.00000   0.00000   0.16000
           A6           0.00000   0.00000   0.00000   0.00000   0.16000
           D1           0.00000   0.00000   0.00000   0.00000   0.00000
                          D1
           D1           0.00374
 ITU=  0
     Eigenvalues ---    0.07300   0.16000   0.16000   0.16000   0.16000
     Eigenvalues ---    0.36055   0.36055   0.36055   0.44964
 RFO step:  Lambda=-2.69769362D-03 EMin= 7.29961111D-02
 Linear search not attempted -- first point.
 Iteration  1 RMS(Cart)=  0.03125737 RMS(Int)=  0.00054767
 Iteration  2 RMS(Cart)=  0.00030866 RMS(Int)=  0.00044837
 Iteration  3 RMS(Cart)=  0.00000007 RMS(Int)=  0.00044837
 ITry= 1 IFail=0 DXMaxC= 8.13D-02 DCOld= 1.00D+10 DXMaxT= 3.00D-01 DXLimC= 3.00D+00 Rises=F
 ClnCor:  largest displacement from symmetrization is 1.00D-03 for atom     5.
 Variable       Old X    -DE/DX   Delta X   Delta X   Delta X     New X
                                 (Linear)    (Quad)   (Total)
    R1        2.65318  -0.03104   0.00000  -0.06862  -0.06862   2.58456
    R2        2.03996   0.00130   0.00000   0.00358   0.00334   2.04330
    R3        2.03996   0.00130   0.00000   0.00358   0.00334   2.04330
    R4        2.03996   0.00130   0.00000   0.00358   0.00334   2.04330
    A1        1.90923  -0.00219   0.00000  -0.02340  -0.02321   1.88602
    A2        1.90923  -0.00219   0.00000  -0.02340  -0.02321   1.88602
    A3        1.90923  -0.00219   0.00000  -0.02340  -0.02321   1.88602
    A4        1.91203   0.00043   0.00000   0.02242   0.02256   1.93459
    A5        1.91203   0.00306   0.00000   0.02379   0.02256   1.93459
    A6        1.91203   0.00306   0.00000   0.02379   0.02256   1.93459
    D1        2.09782   0.00431   0.00000   0.05690   0.05816   2.15599
         Item               Value     Threshold  Converged?
 Maximum Force            0.031038     0.000450     NO 
 RMS     Force            0.009631     0.000300     NO 
 Maximum Displacement     0.081261     0.001800     NO 
 RMS     Displacement     0.031173     0.001200     NO 
 Predicted change in Energy=-1.371180D-03
 Lowest energy point so far.  Saving SCF results.
 GradGradGradGradGradGradGradGradGradGradGradGradGradGradGradGradGradGrad

 Leave Link  103 at Wed Sep 11 14:07:50 2024, MaxMem=   104857600 cpu:               0.0 elap:               0.0
 (Enter /usr/local/g16/l202.exe)
                          Input orientation:                          
 ---------------------------------------------------------------------
 Center     Atomic      Atomic             Coordinates (Angstroms)
 Number     Number       Type             X           Y           Z
 ---------------------------------------------------------------------
      1          9           0        0.000000    0.000000    0.043001
      2          6           0        0.000000    0.000000    1.410691
      3          1           0        1.027988    0.000000    1.745920
      4          1           0       -0.513994    0.890264    1.745920
      5          1           0       -0.513994   -0.890264    1.745920
 ---------------------------------------------------------------------
                    Distance matrix (angstroms):
                    1          2          3          4          5
     1  F    0.000000
     2  C    1.367690   0.000000
     3  H    1.989143   1.081267   0.000000
     4  H    1.989143   1.081267   1.780528   0.000000
     5  H    1.989143   1.081267   1.780528   1.780528   0.000000
 Stoichiometry    CH3F
 Framework group  C3V[C3(CF),3SGV(H)]
 Deg. of freedom     3
 Full point group                 C3V     NOp   6
 RotChk:  IX=0 Diff= 7.82D-16
 Largest Abelian subgroup         CS      NOp   2
 Largest concise Abelian subgroup CS      NOp   2
                         Standard orientation:                         
 ---------------------------------------------------------------------
 Center     Atomic      Atomic             Coordinates (Angstroms)
 Number     Number       Type             X           Y           Z
 ---------------------------------------------------------------------
      1          9           0        0.000000    0.000000    0.739716
      2          6           0        0.000000    0.000000   -0.627974
      3          1           0        0.000000    1.027988   -0.963202
      4          1           0        0.890264   -0.513994   -0.963202
      5          1           0       -0.890264   -0.513994   -0.963202
 ---------------------------------------------------------------------
 Rotational constants (GHZ):         158.1738299          26.3929459          26.3929459
 Leave Link  202 at Wed Sep 11 14:07:50 2024, MaxMem=   104857600 cpu:               0.0 elap:               0.0
 (Enter /usr/local/g16/l301.exe)
 Standard basis: 6-311G(d,p) (5D, 7F)
 Ernie: Thresh=  0.10000D-02 Tol=  0.10000D-05 Strict=F.
 There are    39 symmetry adapted cartesian basis functions of A'  symmetry.
 There are    17 symmetry adapted cartesian basis functions of A"  symmetry.
 There are    37 symmetry adapted basis functions of A'  symmetry.
 There are    17 symmetry adapted basis functions of A"  symmetry.
    54 basis functions,    88 primitive gaussians,    56 cartesian basis functions
     9 alpha electrons        9 beta electrons
       nuclear repulsion energy        37.7770854815 Hartrees.
 IExCor=    0 DFT=F Ex=HF Corr=None ExCW=0 ScaHFX=  1.000000
 ScaDFX=  1.000000  1.000000  1.000000  1.000000 ScalE2=  1.000000  1.000000
 IRadAn=      5 IRanWt=     -1 IRanGd=            0 ICorTp=0 IEmpDi=  4
 NAtoms=    5 NActive=    5 NUniq=    3 SFac= 2.78D+00 NAtFMM=   60 NAOKFM=F Big=F
 Integral buffers will be    131072 words long.
 Raffenetti 1 integral format.
 Two-electron integral symmetry is turned on.
 Leave Link  301 at Wed Sep 11 14:07:50 2024, MaxMem=   104857600 cpu:               0.0 elap:               0.0
 (Enter /usr/local/g16/l302.exe)
 NPDir=0 NMtPBC=     1 NCelOv=     1 NCel=       1 NClECP=     1 NCelD=      1
         NCelK=      1 NCelE2=     1 NClLst=     1 CellRange=     0.0.
 One-electron integrals computed using PRISM.
 One-electron integral symmetry used in STVInt
 NBasis=    54 RedAO= T EigKep=  1.21D-02  NBF=    37    17
 NBsUse=    54 1.00D-06 EigRej= -1.00D+00 NBFU=    37    17
 Leave Link  302 at Wed Sep 11 14:07:50 2024, MaxMem=   104857600 cpu:               0.1 elap:               0.1
 (Enter /usr/local/g16/l303.exe)
 DipDrv:  MaxL=1.
 Leave Link  303 at Wed Sep 11 14:07:50 2024, MaxMem=   104857600 cpu:               0.0 elap:               0.0
 (Enter /usr/local/g16/l401.exe)
 Initial guess from the checkpoint file:  "ch3f.chk"
 B after Tr=     0.000000    0.000000   -0.000000
         Rot=    1.000000    0.000000    0.000000    0.000000 Ang=   0.00 deg.
 Guess basis will be translated and rotated to current coordinates.
 JPrj=2 DoOrth=T DoCkMO=T.
 Initial guess orbital symmetries:
       Occupied  (A1) (A1) (A1) (A1) (E) (E) (A1) (E) (E)
       Virtual   (A1) (E) (E) (A1) (E) (E) (A1) (A1) (E) (E) (A1)
                 (E) (E) (A1) (E) (E) (A2) (E) (E) (A1) (E) (E)
                 (A1) (A1) (E) (E) (A1) (E) (E) (E) (E) (A1) (A1)
                 (E) (E) (E) (E) (E) (E) (A1) (E) (E) (A1) (A1)
                 (A1)
 The electronic state of the initial guess is 1-A1.
 Generating alternative initial guess.
 ExpMin= 1.03D-01 ExpMax= 1.14D+04 ExpMxC= 1.72D+03 IAcc=2 IRadAn=         4 AccDes= 0.00D+00
 Harris functional with IExCor=  205 and IRadAn=       4 diagonalized for initial guess.
 HarFok:  IExCor=  205 AccDes= 0.00D+00 IRadAn=         4 IDoV= 1 UseB2=F ITyADJ=14
 ICtDFT=  3500011 ScaDFX=  1.000000  1.000000  1.000000  1.000000
 FoFCou: FMM=F IPFlag=           0 FMFlag=      100000 FMFlg1=           0
         NFxFlg=           0 DoJE=T BraDBF=F KetDBF=T FulRan=T
         wScrn=  0.000000 ICntrl=       500 IOpCl=  0 I1Cent=   200000004 NGrid=           0
         NMat0=    1 NMatS0=      1 NMatT0=    0 NMatD0=    1 NMtDS0=    0 NMtDT0=    0
 Petite list used in FoFCou.
 Harris En= -139.154673483819    
 Leave Link  401 at Wed Sep 11 14:07:50 2024, MaxMem=   104857600 cpu:               0.1 elap:               0.1
 (Enter /usr/local/g16/l502.exe)
 Keep R1 ints in memory in symmetry-blocked form, NReq=1947793.
 FoFCou: FMM=F IPFlag=           0 FMFlag=           0 FMFlg1=           0
         NFxFlg=           0 DoJE=F BraDBF=F KetDBF=F FulRan=T
         wScrn=  0.000000 ICntrl=       600 IOpCl=  0 I1Cent=           0 NGrid=           0
         NMat0=    1 NMatS0=   1485 NMatT0=    0 NMatD0=    1 NMtDS0=    0 NMtDT0=    0
 Petite list used in FoFCou.
 Closed shell SCF:
 Using DIIS extrapolation, IDIIS=  1040.
 NGot=   104857600 LenX=   104281498 LenY=   104277921
 Requested convergence on RMS density matrix=1.00D-08 within 128 cycles.
 Requested convergence on MAX density matrix=1.00D-06.
 Requested convergence on             energy=1.00D-06.
 No special actions if energy rises.

 Cycle   1  Pass 1  IDiag  1:
 E= -139.077447718800    
 DIIS: error= 4.87D-03 at cycle   1 NSaved=   1.
 NSaved= 1 IEnMin= 1 EnMin= -139.077447718800     IErMin= 1 ErrMin= 4.87D-03
 ErrMax= 4.87D-03  0.00D+00 EMaxC= 1.00D-01 BMatC= 7.62D-04 BMatP= 7.62D-04
 IDIUse=3 WtCom= 9.51D-01 WtEn= 4.87D-02
 Coeff-Com:  0.100D+01
 Coeff-En:   0.100D+01
 Coeff:      0.100D+01
 Gap=     0.687 Goal=   None    Shift=    0.000
 GapD=    0.687 DampG=2.000 DampE=1.000 DampFc=2.0000 IDamp=-1.
 RMSDP=3.18D-04 MaxDP=3.68D-03              OVMax= 6.88D-03

 Cycle   2  Pass 1  IDiag  1:
 E= -139.078048965094     Delta-E=       -0.000601246294 Rises=F Damp=F
 DIIS: error= 6.33D-04 at cycle   2 NSaved=   2.
 NSaved= 2 IEnMin= 2 EnMin= -139.078048965094     IErMin= 2 ErrMin= 6.33D-04
 ErrMax= 6.33D-04  0.00D+00 EMaxC= 1.00D-01 BMatC= 3.22D-05 BMatP= 7.62D-04
 IDIUse=3 WtCom= 9.94D-01 WtEn= 6.33D-03
 Coeff-Com: -0.594D-01 0.106D+01
 Coeff-En:   0.000D+00 0.100D+01
 Coeff:     -0.591D-01 0.106D+01
 Gap=     0.685 Goal=   None    Shift=    0.000
 RMSDP=8.88D-05 MaxDP=1.02D-03 DE=-6.01D-04 OVMax= 1.74D-03

 Cycle   3  Pass 1  IDiag  1:
 E= -139.078083750291     Delta-E=       -0.000034785197 Rises=F Damp=F
 DIIS: error= 2.59D-04 at cycle   3 NSaved=   3.
 NSaved= 3 IEnMin= 3 EnMin= -139.078083750291     IErMin= 3 ErrMin= 2.59D-04
 ErrMax= 2.59D-04  0.00D+00 EMaxC= 1.00D-01 BMatC= 3.31D-06 BMatP= 3.22D-05
 IDIUse=3 WtCom= 9.97D-01 WtEn= 2.59D-03
 Coeff-Com: -0.496D-01 0.151D+00 0.898D+00
 Coeff-En:   0.000D+00 0.000D+00 0.100D+01
 Coeff:     -0.495D-01 0.151D+00 0.899D+00
 Gap=     0.686 Goal=   None    Shift=    0.000
 RMSDP=2.53D-05 MaxDP=2.70D-04 DE=-3.48D-05 OVMax= 6.63D-04

 Cycle   4  Pass 1  IDiag  1:
 E= -139.078086711789     Delta-E=       -0.000002961498 Rises=F Damp=F
 DIIS: error= 6.94D-05 at cycle   4 NSaved=   4.
 NSaved= 4 IEnMin= 4 EnMin= -139.078086711789     IErMin= 4 ErrMin= 6.94D-05
 ErrMax= 6.94D-05  0.00D+00 EMaxC= 1.00D-01 BMatC= 1.66D-07 BMatP= 3.31D-06
 IDIUse=1 WtCom= 1.00D+00 WtEn= 0.00D+00
 Coeff-Com: -0.147D-02-0.351D-01 0.843D-01 0.952D+00
 Coeff:     -0.147D-02-0.351D-01 0.843D-01 0.952D+00
 Gap=     0.686 Goal=   None    Shift=    0.000
 RMSDP=7.54D-06 MaxDP=1.14D-04 DE=-2.96D-06 OVMax= 1.42D-04

 Cycle   5  Pass 1  IDiag  1:
 E= -139.078086879008     Delta-E=       -0.000000167219 Rises=F Damp=F
 DIIS: error= 2.14D-05 at cycle   5 NSaved=   5.
 NSaved= 5 IEnMin= 5 EnMin= -139.078086879008     IErMin= 5 ErrMin= 2.14D-05
 ErrMax= 2.14D-05  0.00D+00 EMaxC= 1.00D-01 BMatC= 1.48D-08 BMatP= 1.66D-07
 IDIUse=1 WtCom= 1.00D+00 WtEn= 0.00D+00
 Coeff-Com:  0.241D-02-0.145D-01-0.364D-01 0.177D+00 0.872D+00
 Coeff:      0.241D-02-0.145D-01-0.364D-01 0.177D+00 0.872D+00
 Gap=     0.686 Goal=   None    Shift=    0.000
 RMSDP=2.08D-06 MaxDP=2.20D-05 DE=-1.67D-07 OVMax= 6.75D-05

 Cycle   6  Pass 1  IDiag  1:
 E= -139.078086896085     Delta-E=       -0.000000017078 Rises=F Damp=F
 DIIS: error= 5.65D-06 at cycle   6 NSaved=   6.
 NSaved= 6 IEnMin= 6 EnMin= -139.078086896085     IErMin= 6 ErrMin= 5.65D-06
 ErrMax= 5.65D-06  0.00D+00 EMaxC= 1.00D-01 BMatC= 1.46D-09 BMatP= 1.48D-08
 IDIUse=1 WtCom= 1.00D+00 WtEn= 0.00D+00
 Coeff-Com: -0.118D-03 0.367D-02-0.590D-02-0.103D+00 0.112D-01 0.109D+01
 Coeff:     -0.118D-03 0.367D-02-0.590D-02-0.103D+00 0.112D-01 0.109D+01
 Gap=     0.686 Goal=   None    Shift=    0.000
 RMSDP=9.17D-07 MaxDP=9.63D-06 DE=-1.71D-08 OVMax= 2.03D-05

 Cycle   7  Pass 1  IDiag  1:
 E= -139.078086898314     Delta-E=       -0.000000002228 Rises=F Damp=F
 DIIS: error= 1.65D-06 at cycle   7 NSaved=   7.
 NSaved= 7 IEnMin= 7 EnMin= -139.078086898314     IErMin= 7 ErrMin= 1.65D-06
 ErrMax= 1.65D-06  0.00D+00 EMaxC= 1.00D-01 BMatC= 7.02D-11 BMatP= 1.46D-09
 IDIUse=1 WtCom= 1.00D+00 WtEn= 0.00D+00
 Coeff-Com: -0.177D-03 0.353D-03 0.505D-02 0.104D-01-0.680D-01-0.246D+00
 Coeff-Com:  0.130D+01
 Coeff:     -0.177D-03 0.353D-03 0.505D-02 0.104D-01-0.680D-01-0.246D+00
 Coeff:      0.130D+01
 Gap=     0.686 Goal=   None    Shift=    0.000
 RMSDP=2.30D-07 MaxDP=2.44D-06 DE=-2.23D-09 OVMax= 7.61D-06

 Cycle   8  Pass 1  IDiag  1:
 E= -139.078086898470     Delta-E=       -0.000000000156 Rises=F Damp=F
 DIIS: error= 2.14D-07 at cycle   8 NSaved=   8.
 NSaved= 8 IEnMin= 8 EnMin= -139.078086898470     IErMin= 8 ErrMin= 2.14D-07
 ErrMax= 2.14D-07  0.00D+00 EMaxC= 1.00D-01 BMatC= 1.51D-12 BMatP= 7.02D-11
 IDIUse=1 WtCom= 1.00D+00 WtEn= 0.00D+00
 Coeff-Com:  0.314D-04-0.247D-03-0.407D-03 0.295D-02 0.102D-01-0.165D-01
 Coeff-Com: -0.170D+00 0.117D+01
 Coeff:      0.314D-04-0.247D-03-0.407D-03 0.295D-02 0.102D-01-0.165D-01
 Coeff:     -0.170D+00 0.117D+01
 Gap=     0.686 Goal=   None    Shift=    0.000
 RMSDP=3.34D-08 MaxDP=3.28D-07 DE=-1.56D-10 OVMax= 8.88D-07

 Cycle   9  Pass 1  IDiag  1:
 E= -139.078086898473     Delta-E=       -0.000000000003 Rises=F Damp=F
 DIIS: error= 2.18D-08 at cycle   9 NSaved=   9.
 NSaved= 9 IEnMin= 9 EnMin= -139.078086898473     IErMin= 9 ErrMin= 2.18D-08
 ErrMax= 2.18D-08  0.00D+00 EMaxC= 1.00D-01 BMatC= 1.86D-14 BMatP= 1.51D-12
 IDIUse=1 WtCom= 1.00D+00 WtEn= 0.00D+00
 Coeff-Com: -0.419D-05 0.454D-04 0.373D-04-0.806D-03-0.143D-02 0.771D-02
 Coeff-Com:  0.178D-01-0.256D+00 0.123D+01
 Coeff:     -0.419D-05 0.454D-04 0.373D-04-0.806D-03-0.143D-02 0.771D-02
 Coeff:      0.178D-01-0.256D+00 0.123D+01
 Gap=     0.686 Goal=   None    Shift=    0.000
 RMSDP=5.30D-09 MaxDP=7.21D-08 DE=-2.96D-12 OVMax= 6.31D-08

 SCF Done:  E(RHF) =  -139.078086898     A.U. after    9 cycles
            NFock=  9  Conv=0.53D-08     -V/T= 1.9997
 KE= 1.391191183803D+02 PE=-4.064039745815D+02 EE= 9.042968382124D+01
 Leave Link  502 at Wed Sep 11 14:07:50 2024, MaxMem=   104857600 cpu:               0.2 elap:               0.2
 (Enter /usr/local/g16/l701.exe)
 ... and contract with generalized density number  0.
 Compute integral first derivatives.
 Leave Link  701 at Wed Sep 11 14:07:50 2024, MaxMem=   104857600 cpu:               0.1 elap:               0.1
 (Enter /usr/local/g16/l702.exe)
 L702 exits ... SP integral derivatives will be done elsewhere.
 Leave Link  702 at Wed Sep 11 14:07:50 2024, MaxMem=   104857600 cpu:               0.0 elap:               0.0
 (Enter /usr/local/g16/l703.exe)
 Integral derivatives from FoFJK, PRISM(SPDF).
 Compute integral first derivatives, UseDBF=F ICtDFT=           0.
 Calling FoFJK, ICntrl=      2127 FMM=F ISym2X=1 I1Cent= 0 IOpClX= 0 NMat=1 NMatS=1 NMatT=0.
 FoFJK:  IHMeth= 1 ICntrl=    2127 DoSepK=F KAlg= 0 I1Cent=           0 FoldK=F
 IRaf=         0 NMat=       1 IRICut=       1 DoRegI=T DoRafI=F ISym2E= 1 IDoP0=0 IntGTp=1.
 FoFCou: FMM=F IPFlag=           0 FMFlag=      100000 FMFlg1=         800
         NFxFlg=           0 DoJE=F BraDBF=F KetDBF=F FulRan=T
         wScrn=  0.000000 ICntrl=      2127 IOpCl=  0 I1Cent=           0 NGrid=           0
         NMat0=    1 NMatS0=      1 NMatT0=    0 NMatD0=    1 NMtDS0=    0 NMtDT0=    0
 Petite list used in FoFCou.
 Leave Link  703 at Wed Sep 11 14:07:51 2024, MaxMem=   104857600 cpu:               0.2 elap:               0.2
 (Enter /usr/local/g16/l716.exe)
 Dipole        = 0.00000000D+00-1.11022302D-16-8.21691762D-01
 ***** Axes restored to original set *****
 -------------------------------------------------------------------
 Center     Atomic                   Forces (Hartrees/Bohr)
 Number     Number              X              Y              Z
 -------------------------------------------------------------------
      1        9          -0.000000000    0.000000000    0.000052685
      2        6           0.000000000   -0.000000000   -0.007991001
      3        1          -0.000255367    0.000000000    0.002646105
      4        1           0.000127683   -0.000221154    0.002646105
      5        1           0.000127683    0.000221154    0.002646105
 -------------------------------------------------------------------
 Cartesian Forces:  Max     0.007991001 RMS     0.002381318
 Leave Link  716 at Wed Sep 11 14:07:51 2024, MaxMem=   104857600 cpu:               0.0 elap:               0.0
 (Enter /usr/local/g16/l103.exe)

 GradGradGradGradGradGradGradGradGradGradGradGradGradGradGradGradGradGrad
 Berny optimization.
 Using GEDIIS/GDIIS optimizer.
 FormGI is forming the generalized inverse of G from B-inverse, IUseBI=4.
 Internal  Forces:  Max     0.003018223 RMS     0.001474582
 Search for a local minimum.
 Step number   2 out of a maximum of   21
 All quantities printed in internal units (Hartrees-Bohrs-Radians)
 RMS Force = .14746D-02 SwitMx=.10000D-02 MixMth= 1
 Mixed Optimization -- RFO/linear search
 Update second derivatives using D2CorX and points    1    2
 DE= -1.21D-03 DEPred=-1.37D-03 R= 8.80D-01
 TightC=F SS=  1.41D+00  RLast= 1.06D-01 DXNew= 5.0454D-01 3.1844D-01
 Trust test= 8.80D-01 RLast= 1.06D-01 DXMaxT set to 3.18D-01
 The second derivative matrix:
                          R1        R2        R3        R4        A1
           R1           0.40425
           R2           0.00669   0.36017
           R3           0.00669  -0.00038   0.36017
           R4           0.00669  -0.00038  -0.00038   0.36017
           A1          -0.00647   0.00083   0.00083   0.00083   0.15910
           A2          -0.00647   0.00083   0.00083   0.00083  -0.00090
           A3          -0.00647   0.00083   0.00083   0.00083  -0.00090
           A4           0.03563  -0.00149  -0.00149  -0.00149   0.00431
           A5          -0.00866  -0.00046  -0.00046  -0.00046  -0.00088
           A6          -0.00866  -0.00046  -0.00046  -0.00046  -0.00088
           D1          -0.07183   0.00164   0.00164   0.00164  -0.00841
                          A2        A3        A4        A5        A6
           A2           0.15910
           A3          -0.00090   0.15910
           A4           0.00431   0.00431   0.15521
           A5          -0.00088  -0.00088  -0.00388   0.16327
           A6          -0.00088  -0.00088  -0.00388   0.00327   0.16327
           D1          -0.00841  -0.00841   0.00123   0.01170   0.01170
                          D1
           D1           0.02130
 ITU=  1  0
 Use linear search instead of GDIIS.
     Eigenvalues ---    0.08454   0.16000   0.16000   0.16000   0.16839
     Eigenvalues ---    0.35703   0.36055   0.36055   0.41408
 RFO step:  Lambda=-1.60548983D-04 EMin= 8.45389017D-02
 Quartic linear search produced a step of -0.11001.
 Iteration  1 RMS(Cart)=  0.00823100 RMS(Int)=  0.00013328
 Iteration  2 RMS(Cart)=  0.00009861 RMS(Int)=  0.00008470
 Iteration  3 RMS(Cart)=  0.00000000 RMS(Int)=  0.00008470
 ITry= 1 IFail=0 DXMaxC= 1.61D-02 DCOld= 1.00D+10 DXMaxT= 3.18D-01 DXLimC= 3.00D+00 Rises=F
 ClnCor:  largest displacement from symmetrization is 3.44D-04 for atom     5.
 Variable       Old X    -DE/DX   Delta X   Delta X   Delta X     New X
                                 (Linear)    (Quad)   (Total)
    R1        2.58456  -0.00005   0.00755  -0.01268  -0.00513   2.57943
    R2        2.04330   0.00058  -0.00037   0.00207   0.00178   2.04508
    R3        2.04330   0.00058  -0.00037   0.00207   0.00178   2.04508
    R4        2.04330   0.00058  -0.00037   0.00207   0.00178   2.04508
    A1        1.88602   0.00144   0.00255   0.01010   0.01263   1.89865
    A2        1.88602   0.00144   0.00255   0.01010   0.01263   1.89865
    A3        1.88602   0.00144   0.00255   0.01010   0.01263   1.89865
    A4        1.93459  -0.00021  -0.00248  -0.00907  -0.01212   1.92246
    A5        1.93459  -0.00194  -0.00248  -0.00980  -0.01212   1.92246
    A6        1.93459  -0.00194  -0.00248  -0.00980  -0.01212   1.92246
    D1        2.15599  -0.00302  -0.00640  -0.02554  -0.03193   2.12406
         Item               Value     Threshold  Converged?
 Maximum Force            0.003018     0.000450     NO 
 RMS     Force            0.001475     0.000300     NO 
 Maximum Displacement     0.016085     0.001800     NO 
 RMS     Displacement     0.008232     0.001200     NO 
 Predicted change in Energy=-1.045935D-04
 Lowest energy point so far.  Saving SCF results.
 GradGradGradGradGradGradGradGradGradGradGradGradGradGradGradGradGradGrad

 Leave Link  103 at Wed Sep 11 14:07:51 2024, MaxMem=   104857600 cpu:               0.0 elap:               0.0
 (Enter /usr/local/g16/l202.exe)
                          Input orientation:                          
 ---------------------------------------------------------------------
 Center     Atomic      Atomic             Coordinates (Angstroms)
 Number     Number       Type             X           Y           Z
 ---------------------------------------------------------------------
      1          9           0        0.000000   -0.000000    0.037204
      2          6           0        0.000000   -0.000000    1.402179
      3          1           0        1.024567    0.000000    1.750665
      4          1           0       -0.512283    0.887301    1.750665
      5          1           0       -0.512283   -0.887301    1.750665
 ---------------------------------------------------------------------
                    Distance matrix (angstroms):
                    1          2          3          4          5
     1  F    0.000000
     2  C    1.364976   0.000000
     3  H    1.996418   1.082210   0.000000
     4  H    1.996418   1.082210   1.774602   0.000000
     5  H    1.996418   1.082210   1.774602   1.774602   0.000000
 Stoichiometry    CH3F
 Framework group  C3V[C3(CF),3SGV(H)]
 Deg. of freedom     3
 Full point group                 C3V     NOp   6
 RotChk:  IX=0 Diff= 7.38D-16
 Largest Abelian subgroup         CS      NOp   2
 Largest concise Abelian subgroup CS      NOp   2
                         Standard orientation:                         
 ---------------------------------------------------------------------
 Center     Atomic      Atomic             Coordinates (Angstroms)
 Number     Number       Type             X           Y           Z
 ---------------------------------------------------------------------
      1          9           0        0.000000    0.000000    0.740569
      2          6           0        0.000000    0.000000   -0.624407
      3          1           0       -0.000000    1.024567   -0.972892
      4          1           0        0.887301   -0.512283   -0.972892
      5          1           0       -0.887301   -0.512283   -0.972892
 ---------------------------------------------------------------------
 Rotational constants (GHZ):         159.2319520          26.3789611          26.3789611
 Leave Link  202 at Wed Sep 11 14:07:51 2024, MaxMem=   104857600 cpu:               0.0 elap:               0.0
 (Enter /usr/local/g16/l301.exe)
 Standard basis: 6-311G(d,p) (5D, 7F)
 Ernie: Thresh=  0.10000D-02 Tol=  0.10000D-05 Strict=F.
 There are    39 symmetry adapted cartesian basis functions of A'  symmetry.
 There are    17 symmetry adapted cartesian basis functions of A"  symmetry.
 There are    37 symmetry adapted basis functions of A'  symmetry.
 There are    17 symmetry adapted basis functions of A"  symmetry.
    54 basis functions,    88 primitive gaussians,    56 cartesian basis functions
     9 alpha electrons        9 beta electrons
       nuclear repulsion energy        37.7877581876 Hartrees.
 IExCor=    0 DFT=F Ex=HF Corr=None ExCW=0 ScaHFX=  1.000000
 ScaDFX=  1.000000  1.000000  1.000000  1.000000 ScalE2=  1.000000  1.000000
 IRadAn=      5 IRanWt=     -1 IRanGd=            0 ICorTp=0 IEmpDi=  4
 NAtoms=    5 NActive=    5 NUniq=    3 SFac= 2.78D+00 NAtFMM=   60 NAOKFM=F Big=F
 Integral buffers will be    131072 words long.
 Raffenetti 1 integral format.
 Two-electron integral symmetry is turned on.
 Leave Link  301 at Wed Sep 11 14:07:51 2024, MaxMem=   104857600 cpu:               0.0 elap:               0.0
 (Enter /usr/local/g16/l302.exe)
 NPDir=0 NMtPBC=     1 NCelOv=     1 NCel=       1 NClECP=     1 NCelD=      1
         NCelK=      1 NCelE2=     1 NClLst=     1 CellRange=     0.0.
 One-electron integrals computed using PRISM.
 One-electron integral symmetry used in STVInt
 NBasis=    54 RedAO= T EigKep=  1.20D-02  NBF=    37    17
 NBsUse=    54 1.00D-06 EigRej= -1.00D+00 NBFU=    37    17
 Leave Link  302 at Wed Sep 11 14:07:51 2024, MaxMem=   104857600 cpu:               0.1 elap:               0.1
 (Enter /usr/local/g16/l303.exe)
 DipDrv:  MaxL=1.
 Leave Link  303 at Wed Sep 11 14:07:51 2024, MaxMem=   104857600 cpu:               0.0 elap:               0.0
 (Enter /usr/local/g16/l401.exe)
 Initial guess from the checkpoint file:  "ch3f.chk"
 B after Tr=    -0.000000   -0.000000    0.000000
         Rot=    1.000000   -0.000000    0.000000   -0.000000 Ang=   0.00 deg.
 Guess basis will be translated and rotated to current coordinates.
 JPrj=2 DoOrth=T DoCkMO=T.
 Initial guess orbital symmetries:
       Occupied  (A1) (A1) (A1) (A1) (E) (E) (A1) (E) (E)
       Virtual   (A1) (E) (E) (A1) (E) (E) (A1) (A1) (E) (E) (A1)
                 (E) (E) (A1) (E) (E) (A2) (E) (E) (A1) (E) (E)
                 (A1) (A1) (E) (E) (A1) (E) (E) (E) (E) (A1) (A1)
                 (E) (E) (E) (E) (E) (E) (A1) (E) (E) (A1) (A1)
                 (A1)
 The electronic state of the initial guess is 1-A1.
 Leave Link  401 at Wed Sep 11 14:07:51 2024, MaxMem=   104857600 cpu:               0.1 elap:               0.1
 (Enter /usr/local/g16/l502.exe)
 Keep R1 ints in memory in symmetry-blocked form, NReq=1947793.
 FoFCou: FMM=F IPFlag=           0 FMFlag=           0 FMFlg1=           0
         NFxFlg=           0 DoJE=F BraDBF=F KetDBF=F FulRan=T
         wScrn=  0.000000 ICntrl=       600 IOpCl=  0 I1Cent=           0 NGrid=           0
         NMat0=    1 NMatS0=   1485 NMatT0=    0 NMatD0=    1 NMtDS0=    0 NMtDT0=    0
 Petite list used in FoFCou.
 Closed shell SCF:
 Using DIIS extrapolation, IDIIS=  1040.
 NGot=   104857600 LenX=   104281498 LenY=   104277921
 Requested convergence on RMS density matrix=1.00D-08 within 128 cycles.
 Requested convergence on MAX density matrix=1.00D-06.
 Requested convergence on             energy=1.00D-06.
 No special actions if energy rises.

 Cycle   1  Pass 1  IDiag  1:
 E= -139.078184467722    
 DIIS: error= 6.40D-04 at cycle   1 NSaved=   1.
 NSaved= 1 IEnMin= 1 EnMin= -139.078184467722     IErMin= 1 ErrMin= 6.40D-04
 ErrMax= 6.40D-04  0.00D+00 EMaxC= 1.00D-01 BMatC= 2.29D-05 BMatP= 2.29D-05
 IDIUse=3 WtCom= 9.94D-01 WtEn= 6.40D-03
 Coeff-Com:  0.100D+01
 Coeff-En:   0.100D+01
 Coeff:      0.100D+01
 Gap=     0.685 Goal=   None    Shift=    0.000
 RMSDP=6.65D-05 MaxDP=5.16D-04              OVMax= 1.15D-03

 Cycle   2  Pass 1  IDiag  1:
 E= -139.078207526753     Delta-E=       -0.000023059031 Rises=F Damp=F
 DIIS: error= 1.87D-04 at cycle   2 NSaved=   2.
 NSaved= 2 IEnMin= 2 EnMin= -139.078207526753     IErMin= 2 ErrMin= 1.87D-04
 ErrMax= 1.87D-04  0.00D+00 EMaxC= 1.00D-01 BMatC= 1.03D-06 BMatP= 2.29D-05
 IDIUse=3 WtCom= 9.98D-01 WtEn= 1.87D-03
 Coeff-Com: -0.145D+00 0.114D+01
 Coeff-En:   0.000D+00 0.100D+01
 Coeff:     -0.144D+00 0.114D+01
 Gap=     0.685 Goal=   None    Shift=    0.000
 RMSDP=1.94D-05 MaxDP=2.23D-04 DE=-2.31D-05 OVMax= 4.97D-04

 Cycle   3  Pass 1  IDiag  1:
 E= -139.078209043447     Delta-E=       -0.000001516694 Rises=F Damp=F
 DIIS: error= 5.04D-05 at cycle   3 NSaved=   3.
 NSaved= 3 IEnMin= 3 EnMin= -139.078209043447     IErMin= 3 ErrMin= 5.04D-05
 ErrMax= 5.04D-05  0.00D+00 EMaxC= 1.00D-01 BMatC= 1.07D-07 BMatP= 1.03D-06
 IDIUse=1 WtCom= 1.00D+00 WtEn= 0.00D+00
 Coeff-Com: -0.443D-01 0.155D+00 0.889D+00
 Coeff:     -0.443D-01 0.155D+00 0.889D+00
 Gap=     0.685 Goal=   None    Shift=    0.000
 RMSDP=4.75D-06 MaxDP=4.79D-05 DE=-1.52D-06 OVMax= 1.08D-04

 Cycle   4  Pass 1  IDiag  1:
 E= -139.078209156236     Delta-E=       -0.000000112789 Rises=F Damp=F
 DIIS: error= 2.35D-05 at cycle   4 NSaved=   4.
 NSaved= 4 IEnMin= 4 EnMin= -139.078209156236     IErMin= 4 ErrMin= 2.35D-05
 ErrMax= 2.35D-05  0.00D+00 EMaxC= 1.00D-01 BMatC= 1.53D-08 BMatP= 1.07D-07
 IDIUse=1 WtCom= 1.00D+00 WtEn= 0.00D+00
 Coeff-Com:  0.152D-01-0.133D+00 0.123D+00 0.994D+00
 Coeff:      0.152D-01-0.133D+00 0.123D+00 0.994D+00
 Gap=     0.685 Goal=   None    Shift=    0.000
 RMSDP=1.99D-06 MaxDP=2.77D-05 DE=-1.13D-07 OVMax= 7.33D-05

 Cycle   5  Pass 1  IDiag  1:
 E= -139.078209175735     Delta-E=       -0.000000019499 Rises=F Damp=F
 DIIS: error= 5.42D-06 at cycle   5 NSaved=   5.
 NSaved= 5 IEnMin= 5 EnMin= -139.078209175735     IErMin= 5 ErrMin= 5.42D-06
 ErrMax= 5.42D-06  0.00D+00 EMaxC= 1.00D-01 BMatC= 8.69D-10 BMatP= 1.53D-08
 IDIUse=1 WtCom= 1.00D+00 WtEn= 0.00D+00
 Coeff-Com:  0.208D-02-0.681D-02-0.686D-01 0.107D-01 0.106D+01
 Coeff:      0.208D-02-0.681D-02-0.686D-01 0.107D-01 0.106D+01
 Gap=     0.685 Goal=   None    Shift=    0.000
 RMSDP=5.59D-07 MaxDP=5.53D-06 DE=-1.95D-08 OVMax= 1.61D-05

 Cycle   6  Pass 1  IDiag  1:
 E= -139.078209176987     Delta-E=       -0.000000001252 Rises=F Damp=F
 DIIS: error= 1.15D-06 at cycle   6 NSaved=   6.
 NSaved= 6 IEnMin= 6 EnMin= -139.078209176987     IErMin= 6 ErrMin= 1.15D-06
 ErrMax= 1.15D-06  0.00D+00 EMaxC= 1.00D-01 BMatC= 6.82D-11 BMatP= 8.69D-10
 IDIUse=1 WtCom= 1.00D+00 WtEn= 0.00D+00
 Coeff-Com: -0.122D-02 0.132D-01-0.207D-01-0.862D-01 0.788D-01 0.102D+01
 Coeff:     -0.122D-02 0.132D-01-0.207D-01-0.862D-01 0.788D-01 0.102D+01
 Gap=     0.685 Goal=   None    Shift=    0.000
 RMSDP=1.62D-07 MaxDP=1.71D-06 DE=-1.25D-09 OVMax= 4.91D-06

 Cycle   7  Pass 1  IDiag  1:
 E= -139.078209177098     Delta-E=       -0.000000000111 Rises=F Damp=F
 DIIS: error= 2.48D-07 at cycle   7 NSaved=   7.
 NSaved= 7 IEnMin= 7 EnMin= -139.078209177098     IErMin= 7 ErrMin= 2.48D-07
 ErrMax= 2.48D-07  0.00D+00 EMaxC= 1.00D-01 BMatC= 2.65D-12 BMatP= 6.82D-11
 IDIUse=1 WtCom= 1.00D+00 WtEn= 0.00D+00
 Coeff-Com: -0.367D-04-0.602D-03 0.569D-02 0.610D-02-0.658D-01-0.160D+00
 Coeff-Com:  0.121D+01
 Coeff:     -0.367D-04-0.602D-03 0.569D-02 0.610D-02-0.658D-01-0.160D+00
 Coeff:      0.121D+01
 Gap=     0.685 Goal=   None    Shift=    0.000
 RMSDP=4.91D-08 MaxDP=4.86D-07 DE=-1.11D-10 OVMax= 1.38D-06

 Cycle   8  Pass 1  IDiag  1:
 E= -139.078209177104     Delta-E=       -0.000000000006 Rises=F Damp=F
 DIIS: error= 2.56D-08 at cycle   8 NSaved=   8.
 NSaved= 8 IEnMin= 8 EnMin= -139.078209177104     IErMin= 8 ErrMin= 2.56D-08
 ErrMax= 2.56D-08  0.00D+00 EMaxC= 1.00D-01 BMatC= 3.35D-14 BMatP= 2.65D-12
 IDIUse=1 WtCom= 1.00D+00 WtEn= 0.00D+00
 Coeff-Com:  0.165D-04-0.738D-04-0.603D-03 0.673D-03 0.735D-02-0.155D-02
 Coeff-Com: -0.134D+00 0.113D+01
 Coeff:      0.165D-04-0.738D-04-0.603D-03 0.673D-03 0.735D-02-0.155D-02
 Coeff:     -0.134D+00 0.113D+01
 Gap=     0.685 Goal=   None    Shift=    0.000
 RMSDP=4.36D-09 MaxDP=5.97D-08 DE=-5.57D-12 OVMax= 1.06D-07

 SCF Done:  E(RHF) =  -139.078209177     A.U. after    8 cycles
            NFock=  8  Conv=0.44D-08     -V/T= 1.9997
 KE= 1.391145976296D+02 PE=-4.064058577656D+02 EE= 9.042529277136D+01
 Leave Link  502 at Wed Sep 11 14:07:51 2024, MaxMem=   104857600 cpu:               0.2 elap:               0.2
 (Enter /usr/local/g16/l701.exe)
 ... and contract with generalized density number  0.
 Compute integral first derivatives.
 Leave Link  701 at Wed Sep 11 14:07:51 2024, MaxMem=   104857600 cpu:               0.1 elap:               0.1
 (Enter /usr/local/g16/l702.exe)
 L702 exits ... SP integral derivatives will be done elsewhere.
 Leave Link  702 at Wed Sep 11 14:07:51 2024, MaxMem=   104857600 cpu:               0.0 elap:               0.0
 (Enter /usr/local/g16/l703.exe)
 Integral derivatives from FoFJK, PRISM(SPDF).
 Compute integral first derivatives, UseDBF=F ICtDFT=           0.
 Calling FoFJK, ICntrl=      2127 FMM=F ISym2X=1 I1Cent= 0 IOpClX= 0 NMat=1 NMatS=1 NMatT=0.
 FoFJK:  IHMeth= 1 ICntrl=    2127 DoSepK=F KAlg= 0 I1Cent=           0 FoldK=F
 IRaf=         0 NMat=       1 IRICut=       1 DoRegI=T DoRafI=F ISym2E= 1 IDoP0=0 IntGTp=1.
 FoFCou: FMM=F IPFlag=           0 FMFlag=      100000 FMFlg1=         800
         NFxFlg=           0 DoJE=F BraDBF=F KetDBF=F FulRan=T
         wScrn=  0.000000 ICntrl=      2127 IOpCl=  0 I1Cent=           0 NGrid=           0
         NMat0=    1 NMatS0=      1 NMatT0=    0 NMatD0=    1 NMtDS0=    0 NMtDT0=    0
 Petite list used in FoFCou.
 Leave Link  703 at Wed Sep 11 14:07:51 2024, MaxMem=   104857600 cpu:               0.2 elap:               0.2
 (Enter /usr/local/g16/l716.exe)
 Dipole        =-2.22044605D-16-1.11022302D-16-8.16406763D-01
 ***** Axes restored to original set *****
 -------------------------------------------------------------------
 Center     Atomic                   Forces (Hartrees/Bohr)
 Number     Number              X              Y              Z
 -------------------------------------------------------------------
      1        9          -0.000000000   -0.000000000    0.000545080
      2        6          -0.000000000   -0.000000000   -0.002049662
      3        1           0.000017661    0.000000000    0.000501527
      4        1          -0.000008831    0.000015295    0.000501527
      5        1          -0.000008831   -0.000015295    0.000501527
 -------------------------------------------------------------------
 Cartesian Forces:  Max     0.002049662 RMS     0.000591819
 Leave Link  716 at Wed Sep 11 14:07:51 2024, MaxMem=   104857600 cpu:               0.0 elap:               0.0
 (Enter /usr/local/g16/l103.exe)

 GradGradGradGradGradGradGradGradGradGradGradGradGradGradGradGradGradGrad
 Berny optimization.
 Using GEDIIS/GDIIS optimizer.
 FormGI is forming the generalized inverse of G from B-inverse, IUseBI=4.
 Internal  Forces:  Max     0.000545080 RMS     0.000323550
 Search for a local minimum.
 Step number   3 out of a maximum of   21
 All quantities printed in internal units (Hartrees-Bohrs-Radians)
 RMS Force = .32355D-03 SwitMx=.10000D-02 MixMth= 2
 Mixed Optimization -- En-DIIS/RFO-DIIS
 Update second derivatives using D2CorX and points    1    2    3
 DE= -1.22D-04 DEPred=-1.05D-04 R= 1.17D+00
 TightC=F SS=  1.41D+00  RLast= 4.44D-02 DXNew= 5.3555D-01 1.3331D-01
 Trust test= 1.17D+00 RLast= 4.44D-02 DXMaxT set to 3.18D-01
 The second derivative matrix:
                          R1        R2        R3        R4        A1
           R1           0.39271
           R2           0.01010   0.35911
           R3           0.01010  -0.00144   0.35911
           R4           0.01010  -0.00144  -0.00144   0.35911
           A1           0.00770  -0.00375  -0.00375  -0.00375   0.14187
           A2           0.00770  -0.00375  -0.00375  -0.00375  -0.01813
           A3           0.00770  -0.00375  -0.00375  -0.00375  -0.01813
           A4           0.01649   0.00483   0.00483   0.00483   0.02470
           A5          -0.01989   0.00312   0.00312   0.00312   0.01406
           A6          -0.01989   0.00312   0.00312   0.00312   0.01406
           D1          -0.05884  -0.00289  -0.00289  -0.00289  -0.01702
                          A2        A3        A4        A5        A6
           A2           0.14187
           A3          -0.01813   0.14187
           A4           0.02470   0.02470   0.13609
           A5           0.01406   0.01406  -0.02378   0.15130
           A6           0.01406   0.01406  -0.02378  -0.00870   0.15130
           D1          -0.01702  -0.01702  -0.00109   0.02471   0.02471
                          D1
           D1           0.04822
 ITU=  1  1  0
 Use linear search instead of GDIIS.
     Eigenvalues ---    0.07325   0.15958   0.16000   0.16000   0.16000
     Eigenvalues ---    0.35219   0.36055   0.36055   0.40954
 RFO step:  Lambda=-1.20435936D-06 EMin= 7.32515624D-02
 Quartic linear search produced a step of  0.24221.
 Iteration  1 RMS(Cart)=  0.00183710 RMS(Int)=  0.00003992
 Iteration  2 RMS(Cart)=  0.00000606 RMS(Int)=  0.00003941
 Iteration  3 RMS(Cart)=  0.00000000 RMS(Int)=  0.00003941
 ITry= 1 IFail=0 DXMaxC= 4.34D-03 DCOld= 1.00D+10 DXMaxT= 3.18D-01 DXLimC= 3.00D+00 Rises=F
 ClnCor:  largest displacement from symmetrization is 4.87D-05 for atom     5.
 Variable       Old X    -DE/DX   Delta X   Delta X   Delta X     New X
                                 (Linear)    (Quad)   (Total)
    R1        2.57943  -0.00055  -0.00124  -0.00173  -0.00297   2.57646
    R2        2.04508   0.00018   0.00043   0.00028   0.00072   2.04580
    R3        2.04508   0.00018   0.00043   0.00028   0.00072   2.04580
    R4        2.04508   0.00018   0.00043   0.00028   0.00072   2.04580
    A1        1.89865   0.00026   0.00306   0.00004   0.00310   1.90175
    A2        1.89865   0.00026   0.00306   0.00004   0.00310   1.90175
    A3        1.89865   0.00026   0.00306   0.00004   0.00310   1.90175
    A4        1.92246  -0.00005  -0.00294   0.00005  -0.00303   1.91943
    A5        1.92246  -0.00036  -0.00294  -0.00008  -0.00303   1.91943
    A6        1.92246  -0.00036  -0.00294  -0.00008  -0.00303   1.91943
    D1        2.12406  -0.00053  -0.00773  -0.00005  -0.00773   2.11633
         Item               Value     Threshold  Converged?
 Maximum Force            0.000545     0.000450     NO 
 RMS     Force            0.000324     0.000300     NO 
 Maximum Displacement     0.004336     0.001800     NO 
 RMS     Displacement     0.001834     0.001200     NO 
 Predicted change in Energy=-5.521952D-06
 Lowest energy point so far.  Saving SCF results.
 GradGradGradGradGradGradGradGradGradGradGradGradGradGradGradGradGradGrad

 Leave Link  103 at Wed Sep 11 14:07:51 2024, MaxMem=   104857600 cpu:               0.0 elap:               0.0
 (Enter /usr/local/g16/l202.exe)
                          Input orientation:                          
 ---------------------------------------------------------------------
 Center     Atomic      Atomic             Coordinates (Angstroms)
 Number     Number       Type             X           Y           Z
 ---------------------------------------------------------------------
      1          9           0       -0.000000   -0.000000    0.036482
      2          6           0       -0.000000   -0.000000    1.399885
      3          1           0        1.023844    0.000000    1.751667
      4          1           0       -0.511922    0.886675    1.751667
      5          1           0       -0.511922   -0.886675    1.751667
 ---------------------------------------------------------------------
                    Distance matrix (angstroms):
                    1          2          3          4          5
     1  F    0.000000
     2  C    1.363403   0.000000
     3  H    1.997527   1.082592   0.000000
     4  H    1.997527   1.082592   1.773349   0.000000
     5  H    1.997527   1.082592   1.773349   1.773349   0.000000
 Stoichiometry    CH3F
 Framework group  C3V[C3(CF),3SGV(H)]
 Deg. of freedom     3
 Full point group                 C3V     NOp   6
 RotChk:  IX=0 Diff= 6.70D-16
 Largest Abelian subgroup         CS      NOp   2
 Largest concise Abelian subgroup CS      NOp   2
                         Standard orientation:                         
 ---------------------------------------------------------------------
 Center     Atomic      Atomic             Coordinates (Angstroms)
 Number     Number       Type             X           Y           Z
 ---------------------------------------------------------------------
      1          9           0        0.000000    0.000000    0.740332
      2          6           0        0.000000    0.000000   -0.623071
      3          1           0        0.000000    1.023844   -0.974853
      4          1           0        0.886675   -0.511922   -0.974853
      5          1           0       -0.886675   -0.511922   -0.974853
 ---------------------------------------------------------------------
 Rotational constants (GHZ):         159.4569616          26.4045387          26.4045387
 Leave Link  202 at Wed Sep 11 14:07:51 2024, MaxMem=   104857600 cpu:               0.0 elap:               0.0
 (Enter /usr/local/g16/l301.exe)
 Standard basis: 6-311G(d,p) (5D, 7F)
 Ernie: Thresh=  0.10000D-02 Tol=  0.10000D-05 Strict=F.
 There are    39 symmetry adapted cartesian basis functions of A'  symmetry.
 There are    17 symmetry adapted cartesian basis functions of A"  symmetry.
 There are    37 symmetry adapted basis functions of A'  symmetry.
 There are    17 symmetry adapted basis functions of A"  symmetry.
    54 basis functions,    88 primitive gaussians,    56 cartesian basis functions
     9 alpha electrons        9 beta electrons
       nuclear repulsion energy        37.8054639005 Hartrees.
 IExCor=    0 DFT=F Ex=HF Corr=None ExCW=0 ScaHFX=  1.000000
 ScaDFX=  1.000000  1.000000  1.000000  1.000000 ScalE2=  1.000000  1.000000
 IRadAn=      5 IRanWt=     -1 IRanGd=            0 ICorTp=0 IEmpDi=  4
 NAtoms=    5 NActive=    5 NUniq=    3 SFac= 2.78D+00 NAtFMM=   60 NAOKFM=F Big=F
 Integral buffers will be    131072 words long.
 Raffenetti 1 integral format.
 Two-electron integral symmetry is turned on.
 Leave Link  301 at Wed Sep 11 14:07:51 2024, MaxMem=   104857600 cpu:               0.0 elap:               0.0
 (Enter /usr/local/g16/l302.exe)
 NPDir=0 NMtPBC=     1 NCelOv=     1 NCel=       1 NClECP=     1 NCelD=      1
         NCelK=      1 NCelE2=     1 NClLst=     1 CellRange=     0.0.
 One-electron integrals computed using PRISM.
 One-electron integral symmetry used in STVInt
 NBasis=    54 RedAO= T EigKep=  1.20D-02  NBF=    37    17
 NBsUse=    54 1.00D-06 EigRej= -1.00D+00 NBFU=    37    17
 Leave Link  302 at Wed Sep 11 14:07:51 2024, MaxMem=   104857600 cpu:               0.1 elap:               0.1
 (Enter /usr/local/g16/l303.exe)
 DipDrv:  MaxL=1.
 Leave Link  303 at Wed Sep 11 14:07:52 2024, MaxMem=   104857600 cpu:               0.0 elap:               0.0
 (Enter /usr/local/g16/l401.exe)
 Initial guess from the checkpoint file:  "ch3f.chk"
 B after Tr=     0.000000   -0.000000   -0.000000
         Rot=    1.000000   -0.000000    0.000000    0.000000 Ang=   0.00 deg.
 Guess basis will be translated and rotated to current coordinates.
 JPrj=2 DoOrth=T DoCkMO=T.
 Initial guess orbital symmetries:
       Occupied  (A1) (A1) (A1) (A1) (E) (E) (A1) (E) (E)
       Virtual   (A1) (E) (E) (A1) (E) (E) (A1) (A1) (E) (E) (A1)
                 (E) (E) (A1) (E) (E) (A2) (E) (E) (A1) (E) (E)
                 (A1) (A1) (E) (E) (A1) (E) (E) (E) (E) (A1) (A1)
                 (E) (E) (E) (E) (E) (E) (A1) (E) (E) (A1) (A1)
                 (A1)
 The electronic state of the initial guess is 1-A1.
 Leave Link  401 at Wed Sep 11 14:07:52 2024, MaxMem=   104857600 cpu:               0.1 elap:               0.1
 (Enter /usr/local/g16/l502.exe)
 Keep R1 ints in memory in symmetry-blocked form, NReq=1947807.
 FoFCou: FMM=F IPFlag=           0 FMFlag=           0 FMFlg1=           0
         NFxFlg=           0 DoJE=F BraDBF=F KetDBF=F FulRan=T
         wScrn=  0.000000 ICntrl=       600 IOpCl=  0 I1Cent=           0 NGrid=           0
         NMat0=    1 NMatS0=   1485 NMatT0=    0 NMatD0=    1 NMtDS0=    0 NMtDT0=    0
 Petite list used in FoFCou.
 Closed shell SCF:
 Using DIIS extrapolation, IDIIS=  1040.
 NGot=   104857600 LenX=   104281498 LenY=   104277921
 Requested convergence on RMS density matrix=1.00D-08 within 128 cycles.
 Requested convergence on MAX density matrix=1.00D-06.
 Requested convergence on             energy=1.00D-06.
 No special actions if energy rises.

 Cycle   1  Pass 1  IDiag  1:
 E= -139.078211963839    
 DIIS: error= 2.02D-04 at cycle   1 NSaved=   1.
 NSaved= 1 IEnMin= 1 EnMin= -139.078211963839     IErMin= 1 ErrMin= 2.02D-04
 ErrMax= 2.02D-04  0.00D+00 EMaxC= 1.00D-01 BMatC= 2.49D-06 BMatP= 2.49D-06
 IDIUse=3 WtCom= 9.98D-01 WtEn= 2.02D-03
 Coeff-Com:  0.100D+01
 Coeff-En:   0.100D+01
 Coeff:      0.100D+01
 Gap=     0.685 Goal=   None    Shift=    0.000
 RMSDP=2.14D-05 MaxDP=2.30D-04              OVMax= 3.87D-04

 Cycle   2  Pass 1  IDiag  1:
 E= -139.078214388147     Delta-E=       -0.000002424308 Rises=F Damp=F
 DIIS: error= 6.55D-05 at cycle   2 NSaved=   2.
 NSaved= 2 IEnMin= 2 EnMin= -139.078214388147     IErMin= 2 ErrMin= 6.55D-05
 ErrMax= 6.55D-05  0.00D+00 EMaxC= 1.00D-01 BMatC= 1.16D-07 BMatP= 2.49D-06
 IDIUse=1 WtCom= 1.00D+00 WtEn= 0.00D+00
 Coeff-Com: -0.149D+00 0.115D+01
 Coeff:     -0.149D+00 0.115D+01
 Gap=     0.685 Goal=   None    Shift=    0.000
 RMSDP=6.64D-06 MaxDP=6.91D-05 DE=-2.42D-06 OVMax= 1.50D-04

 Cycle   3  Pass 1  IDiag  1:
 E= -139.078214560281     Delta-E=       -0.000000172134 Rises=F Damp=F
 DIIS: error= 1.99D-05 at cycle   3 NSaved=   3.
 NSaved= 3 IEnMin= 3 EnMin= -139.078214560281     IErMin= 3 ErrMin= 1.99D-05
 ErrMax= 1.99D-05  0.00D+00 EMaxC= 1.00D-01 BMatC= 1.37D-08 BMatP= 1.16D-07
 IDIUse=1 WtCom= 1.00D+00 WtEn= 0.00D+00
 Coeff-Com: -0.573D-01 0.211D+00 0.846D+00
 Coeff:     -0.573D-01 0.211D+00 0.846D+00
 Gap=     0.685 Goal=   None    Shift=    0.000
 RMSDP=1.56D-06 MaxDP=1.82D-05 DE=-1.72D-07 OVMax= 3.13D-05

 Cycle   4  Pass 1  IDiag  1:
 E= -139.078214571959     Delta-E=       -0.000000011678 Rises=F Damp=F
 DIIS: error= 7.17D-06 at cycle   4 NSaved=   4.
 NSaved= 4 IEnMin= 4 EnMin= -139.078214571959     IErMin= 4 ErrMin= 7.17D-06
 ErrMax= 7.17D-06  0.00D+00 EMaxC= 1.00D-01 BMatC= 1.43D-09 BMatP= 1.37D-08
 IDIUse=1 WtCom= 1.00D+00 WtEn= 0.00D+00
 Coeff-Com:  0.128D-01-0.116D+00 0.110D+00 0.994D+00
 Coeff:      0.128D-01-0.116D+00 0.110D+00 0.994D+00
 Gap=     0.685 Goal=   None    Shift=    0.000
 RMSDP=6.12D-07 MaxDP=8.51D-06 DE=-1.17D-08 OVMax= 1.95D-05

 Cycle   5  Pass 1  IDiag  1:
 E= -139.078214573608     Delta-E=       -0.000000001649 Rises=F Damp=F
 DIIS: error= 1.13D-06 at cycle   5 NSaved=   5.
 NSaved= 5 IEnMin= 5 EnMin= -139.078214573608     IErMin= 5 ErrMin= 1.13D-06
 ErrMax= 1.13D-06  0.00D+00 EMaxC= 1.00D-01 BMatC= 4.94D-11 BMatP= 1.43D-09
 IDIUse=1 WtCom= 1.00D+00 WtEn= 0.00D+00
 Coeff-Com: -0.367D-03 0.170D-01-0.719D-01-0.174D+00 0.123D+01
 Coeff:     -0.367D-03 0.170D-01-0.719D-01-0.174D+00 0.123D+01
 Gap=     0.685 Goal=   None    Shift=    0.000
 RMSDP=1.48D-07 MaxDP=1.30D-06 DE=-1.65D-09 OVMax= 4.27D-06

 Cycle   6  Pass 1  IDiag  1:
 E= -139.078214573697     Delta-E=       -0.000000000090 Rises=F Damp=F
 DIIS: error= 2.59D-07 at cycle   6 NSaved=   6.
 NSaved= 6 IEnMin= 6 EnMin= -139.078214573697     IErMin= 6 ErrMin= 2.59D-07
 ErrMax= 2.59D-07  0.00D+00 EMaxC= 1.00D-01 BMatC= 2.38D-12 BMatP= 4.94D-11
 IDIUse=1 WtCom= 1.00D+00 WtEn= 0.00D+00
 Coeff-Com: -0.470D-03 0.224D-02 0.655D-02-0.120D-01-0.259D+00 0.126D+01
 Coeff:     -0.470D-03 0.224D-02 0.655D-02-0.120D-01-0.259D+00 0.126D+01
 Gap=     0.685 Goal=   None    Shift=    0.000
 RMSDP=4.19D-08 MaxDP=4.51D-07 DE=-8.96D-11 OVMax= 1.38D-06

 Cycle   7  Pass 1  IDiag  1:
 E= -139.078214573703     Delta-E=       -0.000000000005 Rises=F Damp=F
 DIIS: error= 4.95D-08 at cycle   7 NSaved=   7.
 NSaved= 7 IEnMin= 7 EnMin= -139.078214573703     IErMin= 7 ErrMin= 4.95D-08
 ErrMax= 4.95D-08  0.00D+00 EMaxC= 1.00D-01 BMatC= 1.40D-13 BMatP= 2.38D-12
 IDIUse=1 WtCom= 1.00D+00 WtEn= 0.00D+00
 Coeff-Com:  0.242D-04-0.109D-02 0.569D-02 0.133D-01-0.117D+00 0.159D+00
 Coeff-Com:  0.941D+00
 Coeff:      0.242D-04-0.109D-02 0.569D-02 0.133D-01-0.117D+00 0.159D+00
 Coeff:      0.941D+00
 Gap=     0.685 Goal=   None    Shift=    0.000
 RMSDP=7.51D-09 MaxDP=1.02D-07 DE=-5.37D-12 OVMax= 1.88D-07

 SCF Done:  E(RHF) =  -139.078214574     A.U. after    7 cycles
            NFock=  7  Conv=0.75D-08     -V/T= 1.9997
 KE= 1.391148959799D+02 PE=-4.064360683655D+02 EE= 9.043749391145D+01
 Leave Link  502 at Wed Sep 11 14:07:52 2024, MaxMem=   104857600 cpu:               0.2 elap:               0.2
 (Enter /usr/local/g16/l701.exe)
 ... and contract with generalized density number  0.
 Compute integral first derivatives.
 Leave Link  701 at Wed Sep 11 14:07:52 2024, MaxMem=   104857600 cpu:               0.1 elap:               0.1
 (Enter /usr/local/g16/l702.exe)
 L702 exits ... SP integral derivatives will be done elsewhere.
 Leave Link  702 at Wed Sep 11 14:07:52 2024, MaxMem=   104857600 cpu:               0.0 elap:               0.0
 (Enter /usr/local/g16/l703.exe)
 Integral derivatives from FoFJK, PRISM(SPDF).
 Compute integral first derivatives, UseDBF=F ICtDFT=           0.
 Calling FoFJK, ICntrl=      2127 FMM=F ISym2X=1 I1Cent= 0 IOpClX= 0 NMat=1 NMatS=1 NMatT=0.
 FoFJK:  IHMeth= 1 ICntrl=    2127 DoSepK=F KAlg= 0 I1Cent=           0 FoldK=F
 IRaf=         0 NMat=       1 IRICut=       1 DoRegI=T DoRafI=F ISym2E= 1 IDoP0=0 IntGTp=1.
 FoFCou: FMM=F IPFlag=           0 FMFlag=      100000 FMFlg1=         800
         NFxFlg=           0 DoJE=F BraDBF=F KetDBF=F FulRan=T
         wScrn=  0.000000 ICntrl=      2127 IOpCl=  0 I1Cent=           0 NGrid=           0
         NMat0=    1 NMatS0=      1 NMatT0=    0 NMatD0=    1 NMtDS0=    0 NMtDT0=    0
 Petite list used in FoFCou.
 Leave Link  703 at Wed Sep 11 14:07:52 2024, MaxMem=   104857600 cpu:               0.2 elap:               0.2
 (Enter /usr/local/g16/l716.exe)
 Dipole        = 0.00000000D+00-2.22044605D-16-8.13198257D-01
 ***** Axes restored to original set *****
 -------------------------------------------------------------------
 Center     Atomic                   Forces (Hartrees/Bohr)
 Number     Number              X              Y              Z
 -------------------------------------------------------------------
      1        9          -0.000000000    0.000000000   -0.000080759
      2        6          -0.000000000   -0.000000000    0.000065072
      3        1          -0.000000840    0.000000000    0.000005229
      4        1           0.000000420   -0.000000727    0.000005229
      5        1           0.000000420    0.000000727    0.000005229
 -------------------------------------------------------------------
 Cartesian Forces:  Max     0.000080759 RMS     0.000026883
 Leave Link  716 at Wed Sep 11 14:07:52 2024, MaxMem=   104857600 cpu:               0.0 elap:               0.0
 (Enter /usr/local/g16/l103.exe)

 GradGradGradGradGradGradGradGradGradGradGradGradGradGradGradGradGradGrad
 Berny optimization.
 Using GEDIIS/GDIIS optimizer.
 FormGI is forming the generalized inverse of G from B-inverse, IUseBI=4.
 Internal  Forces:  Max     0.000080759 RMS     0.000024530
 Search for a local minimum.
 Step number   4 out of a maximum of   21
 All quantities printed in internal units (Hartrees-Bohrs-Radians)
 RMS Force = .24530D-04 SwitMx=.10000D-02 MixMth= 2
 Mixed Optimization -- En-DIIS/RFO-DIIS
 Swapping is turned off.
 Update second derivatives using D2CorX and points    1    2    3    4
 DE= -5.40D-06 DEPred=-5.52D-06 R= 9.77D-01
 TightC=F SS=  1.41D+00  RLast= 1.12D-02 DXNew= 5.3555D-01 3.3731D-02
 Trust test= 9.77D-01 RLast= 1.12D-02 DXMaxT set to 3.18D-01
 The second derivative matrix:
[...]
      X  X                                                                                                                           
      X  X                                                                                                                           
      X  X                                                                                                                           
      X  X                                                                                                                           
      X  X                                                                                                                           
         X                                                                                                                           
         X                                                                                                                           
         X                                                                                                                           
         X                                                                                                                           
 
 ***** Axes restored to original set *****
 -------------------------------------------------------------------
 Center     Atomic                   Forces (Hartrees/Bohr)
 Number     Number              X              Y              Z
 -------------------------------------------------------------------
      1        9          -0.000000000    0.000000000   -0.000080762
      2        6          -0.000000000   -0.000000000    0.000065068
      3        1          -0.000000836    0.000000000    0.000005231
      4        1           0.000000418   -0.000000724    0.000005231
      5        1           0.000000418    0.000000724    0.000005231
 -------------------------------------------------------------------
 Cartesian Forces:  Max     0.000080762 RMS     0.000026883
 Force constants in Cartesian coordinates: 
                1             2             3             4             5 
      1  0.536372D-01
      2  0.000000D+00  0.536372D-01
      3  0.000000D+00  0.000000D+00  0.437511D+00
      4 -0.765099D-01  0.000000D+00  0.000000D+00  0.665042D+00
      5  0.000000D+00 -0.765099D-01  0.000000D+00  0.000000D+00  0.665042D+00
      6  0.000000D+00  0.000000D+00 -0.327546D+00  0.000000D+00  0.000000D+00
      7  0.110954D-01  0.000000D+00 -0.393377D-02 -0.326844D+00  0.000000D+00
      8  0.000000D+00  0.415311D-02  0.000000D+00  0.000000D+00 -0.655112D-01
      9 -0.424060D-01  0.000000D+00 -0.366553D-01 -0.668635D-01  0.000000D+00
     10  0.588867D-02 -0.300608D-02  0.196688D-02 -0.130844D+00  0.113160D+00
     11 -0.300608D-02  0.935979D-02 -0.340674D-02  0.113160D+00 -0.261511D+00
     12  0.212030D-01 -0.367247D-01 -0.366553D-01  0.334318D-01 -0.579055D-01
     13  0.588867D-02  0.300608D-02  0.196688D-02 -0.130844D+00 -0.113160D+00
     14  0.300608D-02  0.935979D-02  0.340674D-02 -0.113160D+00 -0.261511D+00
     15  0.212030D-01  0.367247D-01 -0.366553D-01  0.334318D-01  0.579055D-01
                6             7             8             9            10 
      6  0.564297D+00
      7 -0.790006D-01  0.342931D+00
      8  0.000000D+00  0.000000D+00  0.550075D-01
      9 -0.789170D-01  0.901217D-01  0.000000D+00  0.101200D+00
     10  0.395003D-01 -0.135915D-01  0.299251D-01  0.957392D-02  0.126988D+00
     11 -0.684166D-01 -0.884094D-03  0.317532D-02  0.137792D-02 -0.124675D+00
     12 -0.789170D-01 -0.359364D-02  0.898022D-02  0.718600D-02 -0.450608D-01
     13  0.395003D-01 -0.135915D-01 -0.299251D-01  0.957392D-02  0.115587D-01
     14  0.684166D-01  0.884094D-03  0.317532D-02 -0.137792D-02 -0.154046D-01
     15 -0.789170D-01 -0.359364D-02 -0.898022D-02  0.718600D-02 -0.598027D-02
               11            12            13            14            15 
     11  0.270950D+00
     12  0.780477D-01  0.101200D+00
     13  0.154046D-01 -0.598027D-02  0.126988D+00
     14 -0.219749D-01  0.760229D-02  0.124675D+00  0.270950D+00
     15 -0.760229D-02  0.718600D-02 -0.450608D-01 -0.780477D-01  0.101200D+00
 FormGI is forming the generalized inverse of G from B-inverse, IUseBI=4.
 Force constants in internal coordinates: 
                1             2             3             4             5 
      1  0.437511D+00
      2  0.156312D-01  0.372798D+00
      3  0.156312D-01  0.394342D-02  0.372798D+00
      4  0.156312D-01  0.394342D-02  0.394342D-02  0.372798D+00
      5  0.188297D-01  0.485745D-02 -0.360964D-02 -0.584865D-02  0.170168D+00
      6  0.188297D-01 -0.360964D-02  0.485746D-02 -0.584866D-02 -0.673376D-01
      7  0.188297D-01 -0.360964D-02 -0.360964D-02  0.261844D-02 -0.689399D-01
      8 -0.337636D-02  0.559247D-02  0.559247D-02 -0.103600D-01  0.108860D-01
      9 -0.260182D-01  0.849405D-02 -0.117697D-01  0.963292D-02 -0.148147D-01
     10 -0.260182D-01 -0.117697D-01  0.849405D-02  0.963291D-02 -0.293155D-01
     11 -0.378090D-01  0.484530D-02  0.484530D-02 -0.452350D-03 -0.149510D-01
                6             7             8             9            10 
      6  0.170168D+00
      7 -0.689399D-01  0.166963D+00
      8  0.108860D-01 -0.529582D-03  0.629323D-01
      9 -0.293155D-01 -0.139997D-01 -0.418850D-01  0.125244D+00
     10 -0.148147D-01 -0.139997D-01 -0.418850D-01 -0.263365D-01  0.125244D+00
     11 -0.149510D-01 -0.187420D-01  0.242292D-01  0.117440D-01  0.117440D-01
               11 
     11  0.453266D-01
 Leave Link  716 at Wed Sep 11 14:07:54 2024, MaxMem=   104857600 cpu:               0.0 elap:               0.0
 (Enter /usr/local/g16/l103.exe)

 GradGradGradGradGradGradGradGradGradGradGradGradGradGradGradGradGradGrad
 Berny optimization.
 Red2BG is reusing G-inverse.
 Internal  Forces:  Max     0.000080762 RMS     0.000024531
 Search for a local minimum.
 Step number   1 out of a maximum of    2
 All quantities printed in internal units (Hartrees-Bohrs-Radians)
 Second derivative matrix not updated -- analytic derivatives used.
 The second derivative matrix:
                          R1        R2        R3        R4        A1
           R1           0.43751
           R2           0.01563   0.37280
           R3           0.01563   0.00394   0.37280
           R4           0.01563   0.00394   0.00394   0.37280
           A1           0.01883   0.00486  -0.00361  -0.00585   0.17017
           A2           0.01883  -0.00361   0.00486  -0.00585  -0.06734
           A3           0.01883  -0.00361  -0.00361   0.00262  -0.06894
           A4          -0.00338   0.00559   0.00559  -0.01036   0.01089
           A5          -0.02602   0.00849  -0.01177   0.00963  -0.01481
           A6          -0.02602  -0.01177   0.00849   0.00963  -0.02932
           D1          -0.03781   0.00485   0.00485  -0.00045  -0.01495
                          A2        A3        A4        A5        A6
           A2           0.17017
           A3          -0.06894   0.16696
           A4           0.01089  -0.00053   0.06293
           A5          -0.02932  -0.01400  -0.04188   0.12524
           A6          -0.01481  -0.01400  -0.04188  -0.02634   0.12524
           D1          -0.01495  -0.01874   0.02423   0.01174   0.01174
                          D1
           D1           0.04533
 ITU=  0
     Eigenvalues ---    0.07251   0.14762   0.15101   0.23861   0.23887
     Eigenvalues ---    0.37075   0.37144   0.37363   0.45750
 Angle between quadratic step and forces=  13.63 degrees.
 Linear search not attempted -- first point.
 Iteration  1 RMS(Cart)=  0.00004812 RMS(Int)=  0.00000000
 Iteration  2 RMS(Cart)=  0.00000000 RMS(Int)=  0.00000000
 ITry= 1 IFail=0 DXMaxC= 1.42D-04 DCOld= 1.00D+10 DXMaxT= 3.00D-01 DXLimC= 3.00D+00 Rises=F
 ClnCor:  largest displacement from symmetrization is 2.16D-10 for atom     5.
 Variable       Old X    -DE/DX   Delta X   Delta X   Delta X     New X
                                 (Linear)    (Quad)   (Total)
    R1        2.57646   0.00008   0.00000   0.00019   0.00019   2.57665
    R2        2.04580   0.00000   0.00000  -0.00001  -0.00001   2.04580
    R3        2.04580   0.00000   0.00000  -0.00001  -0.00001   2.04580
    R4        2.04580   0.00000   0.00000  -0.00001  -0.00001   2.04580
    A1        1.90175   0.00000   0.00000  -0.00001  -0.00001   1.90174
    A2        1.90175   0.00000   0.00000  -0.00001  -0.00001   1.90174
    A3        1.90175   0.00000   0.00000  -0.00001  -0.00001   1.90174
    A4        1.91943  -0.00000   0.00000   0.00001   0.00001   1.91944
    A5        1.91943  -0.00000   0.00000   0.00001   0.00001   1.91944
    A6        1.91943  -0.00000   0.00000   0.00001   0.00001   1.91944
    D1        2.11633  -0.00001   0.00000   0.00001   0.00001   2.11634
         Item               Value     Threshold  Converged?
 Maximum Force            0.000081     0.000450     YES
 RMS     Force            0.000025     0.000300     YES
 Maximum Displacement     0.000142     0.001800     YES
 RMS     Displacement     0.000048     0.001200     YES
 Predicted change in Energy=-7.488119D-09
 Optimization completed.
    -- Stationary point found.
                           ----------------------------
                           !   Optimized Parameters   !
                           ! (Angstroms and Degrees)  !
 --------------------------                            --------------------------
 ! Name  Definition              Value          Derivative Info.                !
 --------------------------------------------------------------------------------
 ! R1    R(1,2)                  1.3634         -DE/DX =    0.0001              !
 ! R2    R(2,3)                  1.0826         -DE/DX =    0.0                 !
 ! R3    R(2,4)                  1.0826         -DE/DX =    0.0                 !
 ! R4    R(2,5)                  1.0826         -DE/DX =    0.0                 !
 ! A1    A(1,2,3)              108.9622         -DE/DX =    0.0                 !
 ! A2    A(1,2,4)              108.9622         -DE/DX =    0.0                 !
 ! A3    A(1,2,5)              108.9622         -DE/DX =    0.0                 !
 ! A4    A(3,2,4)              109.9754         -DE/DX =    0.0                 !
 ! A5    A(3,2,5)              109.9754         -DE/DX =    0.0                 !
 ! A6    A(4,2,5)              109.9754         -DE/DX =    0.0                 !
 ! D1    D(3,2,5,4)            121.2567         -DE/DX =    0.0                 !
 --------------------------------------------------------------------------------
 GradGradGradGradGradGradGradGradGradGradGradGradGradGradGradGradGradGrad

 Leave Link  103 at Wed Sep 11 14:07:54 2024, MaxMem=   104857600 cpu:               0.0 elap:               0.0
 (Enter /usr/local/g16/l9999.exe)

 ----------------------------------------------------------------------

 Electric dipole moment (input orientation):
 (Debye = 10**-18 statcoulomb cm , SI units = C m)
                  (au)            (Debye)         (10**-30 SI)
   Tot        0.813198D+00      0.206694D+01      0.689458D+01
   x          0.000000D+00      0.000000D+00      0.000000D+00
   y          0.000000D+00      0.000000D+00      0.000000D+00
   z          0.813198D+00      0.206694D+01      0.689458D+01

 Dipole polarizability, Alpha (input orientation).
 (esu units = cm**3 , SI units = C**2 m**2 J**-1)
 Alpha(0;0):
               (au)            (10**-24 esu)      (10**-40 SI)
   iso        0.124022D+02      0.183781D+01      0.204484D+01
   aniso      0.552494D-01      0.818712D-02      0.910940D-02
   xx         0.124206D+02      0.184054D+01      0.204788D+01
   yx         0.000000D+00      0.000000D+00      0.000000D+00
   yy         0.124206D+02      0.184054D+01      0.204788D+01
   zx         0.000000D+00      0.000000D+00      0.000000D+00
   zy         0.000000D+00      0.000000D+00      0.000000D+00
   zz         0.123653D+02      0.183236D+01      0.203877D+01

 First dipole hyperpolarizability, Beta (input orientation).
 ||, _|_  parallel and perpendicular components, (z) with respect to z axis,
 vector components x,y,z.  Values do not include the 1/n! factor of 1/2.
 (esu units = statvolt**-1 cm**4 , SI units = C**3 m**3 J**-2)
 Beta(0;0,0):
               (au)            (10**-30 esu)      (10**-50 SI)
   || (z)     0.374987D+02      0.323960D+00      0.120234D+00
   _|_(z)     0.124996D+02      0.107987D+00      0.400782D-01
   x          0.000000D+00      0.000000D+00      0.000000D+00
   y          0.000000D+00      0.000000D+00      0.000000D+00
   z          0.187494D+03      0.161980D+01      0.601172D+00
   ||         0.374987D+02      0.323960D+00      0.120234D+00
   xxx        0.207313D+02      0.179102D+00      0.664721D-01
   xxy        0.000000D+00      0.000000D+00      0.000000D+00
   yxy       -0.207313D+02     -0.179102D+00     -0.664721D-01
   yyy        0.000000D+00      0.000000D+00      0.000000D+00
   xxz        0.186615D+02      0.161221D+00      0.598355D-01
   yxz        0.000000D+00      0.000000D+00      0.000000D+00
   yyz        0.186615D+02      0.161221D+00      0.598355D-01
   zxz        0.000000D+00      0.000000D+00      0.000000D+00
   zyz        0.000000D+00      0.000000D+00      0.000000D+00
   zzz        0.251749D+02      0.217492D+00      0.807199D-01

 ----------------------------------------------------------------------

 Dipole orientation:
     9         -0.00000000         -0.00000000          0.06894135
     6          0.00000000          0.00000000          2.64539903
     1          1.93478417          0.00000000          3.31017003
     1         -0.96739209          1.67557224          3.31017003
     1         -0.96739209         -1.67557224          3.31017003

 Electric dipole moment (dipole orientation):
 (Debye = 10**-18 statcoulomb cm , SI units = C m)
                  (au)            (Debye)         (10**-30 SI)
   Tot        0.813198D+00      0.206694D+01      0.689458D+01
   x          0.000000D+00      0.000000D+00      0.000000D+00
   y          0.000000D+00      0.000000D+00      0.000000D+00
   z          0.813198D+00      0.206694D+01      0.689458D+01

 Dipole polarizability, Alpha (dipole orientation).
 (esu units = cm**3 , SI units = C**2 m**2 J**-1)
 Alpha(0;0):
               (au)            (10**-24 esu)      (10**-40 SI)
   iso        0.124022D+02      0.183781D+01      0.204484D+01
   aniso      0.552494D-01      0.818712D-02      0.910940D-02
   xx         0.124206D+02      0.184054D+01      0.204788D+01
   yx         0.000000D+00      0.000000D+00      0.000000D+00
   yy         0.124206D+02      0.184054D+01      0.204788D+01
   zx         0.000000D+00      0.000000D+00      0.000000D+00
   zy         0.000000D+00      0.000000D+00      0.000000D+00
   zz         0.123653D+02      0.183236D+01      0.203877D+01

 First dipole hyperpolarizability, Beta (dipole orientation).
 ||, _|_  parallel and perpendicular components, (z) with respect to z axis,
 vector components x,y,z.  Values do not include the 1/n! factor of 1/2.
 (esu units = statvolt**-1 cm**4 , SI units = C**3 m**3 J**-2)
 Beta(0;0,0):
               (au)            (10**-30 esu)      (10**-50 SI)
   || (z)     0.374987D+02      0.323960D+00      0.120234D+00
   _|_(z)     0.124996D+02      0.107987D+00      0.400782D-01
   x          0.000000D+00      0.000000D+00      0.000000D+00
   y          0.000000D+00      0.000000D+00      0.000000D+00
   z          0.187494D+03      0.161980D+01      0.601172D+00
   ||         0.374987D+02      0.323960D+00      0.120234D+00
   xxx        0.207313D+02      0.179102D+00      0.664721D-01
   xxy        0.000000D+00      0.000000D+00      0.000000D+00
   yxy       -0.207313D+02     -0.179102D+00     -0.664721D-01
   yyy        0.000000D+00      0.000000D+00      0.000000D+00
   xxz        0.186615D+02      0.161221D+00      0.598355D-01
   yxz        0.000000D+00      0.000000D+00      0.000000D+00
   yyz        0.186615D+02      0.161221D+00      0.598355D-01
   zxz        0.000000D+00      0.000000D+00      0.000000D+00
   zyz        0.000000D+00      0.000000D+00      0.000000D+00
   zzz        0.251749D+02      0.217492D+00      0.807199D-01

 ----------------------------------------------------------------------
 1\1\GINC-SV1-C724\Freq\RHF\6-311G(d,p)\C1H3F1\LME\11-Sep-2024\0\\#P Ge
 om=AllCheck Guess=TCheck SCRF=Check GenChk RHF/6-311G(d,p) Freq\\CH3F 
 Calculation\\0,1\F,0.,0.,0.0364821914\C,0.,0.,1.3998848787\H,1.0238436
 912,0.,1.751666545\H,-0.5119218456,0.8866746461,1.751666545\H,-0.51192
 18456,-0.8866746461,1.751666545\\Version=ES64L-G16RevA.03\State=1-A1\H
 F=-139.0782146\RMSD=1.106e-09\RMSF=2.688e-05\ZeroPoint=0.0418238\Therm
 al=0.0447066\Dipole=0.,0.,0.8131982\DipoleDeriv=-0.3343292,0.,0.,0.,-0
 .3343291,0.,0.,0.,-1.0675306,0.5069336,0.,0.,0.,0.5069334,0.,0.,0.,1.1
 245413,-0.1685303,0.,-0.076669,0.,0.0534607,0.,-0.0229329,0.,-0.019003
 6,-0.002037,0.0961249,0.0383345,0.0961249,-0.1130325,-0.0663973,0.0114
 664,-0.0198604,-0.0190036,-0.002037,-0.0961249,0.0383345,-0.0961249,-0
 .1130325,0.0663973,0.0114664,0.0198604,-0.0190036\Polar=12.4205977,0.,
 12.4205977,0.,0.,12.3653483\PolarDeriv=0.2675744,0.,-0.2675744,-1.8127
 855,0.,0.,0.,-0.2675743,0.,0.,-1.812786,0.,1.3701525,0.,1.3701525,0.,0
 .,-7.4609494,-4.3028342,0.,4.3028341,-2.6617209,0.,0.,0.,4.302834,0.,0
 .,-2.6617204,0.,-4.0679182,0.,-4.0679183,0.,0.,2.5049691,7.9407135,0.,
 0.4525459,1.8960381,0.,1.1787375,0.,1.0539107,0.,0.,1.0869662,0.,1.586
 026,0.,0.2124847,2.6532971,0.,1.6519936,-1.9527269,2.0775925,-2.243902
 8,1.2892341,-0.3503384,-0.5893688,1.5567954,-2.5445852,5.7119805,-0.35
 03384,1.6937701,1.0208166,0.55587,-0.5947608,1.2426406,-1.3266486,2.29
 78227,1.6519936,-1.9527269,-2.0775925,-2.2439028,1.2892341,0.3503384,-
 0.5893688,-1.5567954,-2.5445852,-5.7119805,0.3503384,1.6937701,-1.0208
 166,0.55587,0.5947608,1.2426406,-1.3266486,-2.2978227,1.6519936\HyperP
 olar=20.7313228,0.,-20.7313228,0.,18.6614818,0.,18.6614818,0.,0.,25.17
 49105\Quadrupole=0.1748837,0.1748837,-0.3497673,0.,0.,0.\PG=C03V [C3(C
 1F1),3SGV(H1)]\NImag=0\\0.05363723,0.,0.05363722,0.,0.,0.43751149,-0.0
 7650993,0.,0.,0.66504244,0.,-0.07650991,0.,0.,0.66504239,0.,0.,-0.3275
 4570,0.,0.,0.56429672,0.01109535,0.,-0.00393377,-0.32684378,0.,-0.0790
 0063,0.34293139,0.,0.00415311,0.,0.,-0.06551123,0.,0.,0.05500747,-0.04
 240601,0.,-0.03665526,-0.06686351,0.,-0.07891701,0.09012168,0.,0.10120
 028,0.00588867,-0.00300608,0.00196688,-0.13084437,0.11316031,0.0395003
 2,-0.01359148,0.02992505,0.00957392,0.12698845,-0.00300608,0.00935979,
 -0.00340674,0.11316031,-0.26151063,-0.06841656,-0.00088409,0.00317532,
 0.00137792,-0.12467471,0.27095041,0.02120301,-0.03672469,-0.03665526,0
 .03343175,-0.05790549,-0.07891701,-0.00359364,0.00898022,0.00718600,-0
 .04506084,0.07804767,0.10120028,0.00588867,0.00300608,0.00196688,-0.13
 084437,-0.11316031,0.03950032,-0.01359148,-0.02992505,0.00957392,0.011
 55873,0.01540457,-0.00598027,0.12698845,0.00300608,0.00935979,0.003406
 74,-0.11316031,-0.26151063,0.06841656,0.00088409,0.00317532,-0.0013779
 2,-0.01540457,-0.02197488,0.00760229,0.12467471,0.27095041,0.02120301,
 0.03672469,-0.03665526,0.03343175,0.05790549,-0.07891701,-0.00359364,-
 0.00898022,0.00718600,-0.00598027,-0.00760229,0.00718600,-0.04506084,-
 0.07804767,0.10120028\\0.,0.,0.00008076,0.,0.,-0.00006507,0.00000084,0
 .,-0.00000523,-0.00000042,0.00000072,-0.00000523,-0.00000042,-0.000000
 72,-0.00000523\\\@


 THE ONLY EXISTING THINGS ARE ATOMS AND EMPTY SPACE;
 ALL ELSE IS MERE OPINION. -- DEMOCRITUS OF ABDERA D. 370 B.C.
 EXPERIMENTS ARE THE ONLY MEANS OF KNOWLEDGE AT OUR DISPOSAL
 THE REST IS POETRY, IMAGINATION. -- MAX PLANCK
 Job cpu time:       0 days  0 hours  0 minutes  2.2 seconds.
 Elapsed time:       0 days  0 hours  0 minutes  2.2 seconds.
 File lengths (MBytes):  RWF=      6 Int=      0 D2E=      0 Chk=      1 Scr=      1
 Normal termination of Gaussian 16 at Wed Sep 11 14:07:54 2024.
