[Molden Format]
[Molpro variables]
_NUMVAR=  1076.000000000000    
_AVOGAD= 0.6022140760000000E+24
_BOLTZ= 0.1380649000000000E-22
_CLIGHTSI=  299792458.0000000    
_JOULE= 0.4359744722207100E-17
_JPCAL=  4.184000000000000    
_PLANCK= 0.6626070150000000E-33
_BOHR= 0.5291772109030000E-10
_ECHARG= 0.1602176634000000E-18
_ENULL= 0.8854187812800001E-11
_MU= 0.1660539066600000E-26
_EMASS= 0.9109383701500001E-30
_AMU2AU=  1822.888486217313    
_CLIGHT=  29979245800.00000    
_EV= 0.3674932217565494E-01
_KJOULE= 0.3808798847133432E-03
_KJOULE/MOL= 0.3808798847133432E-03
_CM= 0.4556335252912009E-05
_CM-1= 0.4556335252912009E-05
_DEB2SI= 0.3335640951981520E-29
_KCAL= 0.1593601437640628E-02
_KCAL/MOL= 0.1593601437640628E-02
_KELVIN= 0.3166811563455608E-05
_HERTZ= 0.1519829846057038E-15
_HZ= 0.1519829846057038E-15
_TOA= 0.5291772109030000    
_TOANG= 0.5291772109030000    
_TORAD= 0.1745329251994330E-01
_TOCM=  219474.6313631965    
_TODEBYE=  2.541746473194078    
_TOE= 0.4803204712570263E-09
_TOEV=  27.21138624598803    
_TOHERTZ=  6579683920501656.    
_TOHZ=  6579683920501656.    
_TOK=  315775.0248040668    
_TOKCAL=  627.5094740630558    
_TOKELVIN=  315775.0248040668    
_TOKJ=  2625.499639479825    
_TOKJOULE=  2625.499639479825    
_TOKG= 0.1660539066600000E-26
_ANG=  1.889726124625770    
_ANGSTROM=  1.889726124625770    
_RPAREF=  0.000000000000000    
_RPADISS=  0.000000000000000    
_IGNORE_UNDEF=  2.000000000000000    
_STRICTCHECK=  0.000000000000000    
!SEWARD=  0.000000000000000    
!MULTI=  0.000000000000000    
!DFMULTI=  0.000000000000000    
!NUMHESS=  0.000000000000000    
_SEW_ONEEL=  0.000000000000000    
_CPPDONE=FALSE
_DKROLL_DONE=  0.000000000000000    
_FNUC_DONE=  0.000000000000000    
_FOCKDONE=TRUE
_GRADONE=FALSE
_HESSDONE=TRUE
_INTDONE=TRUE
_SCFDONE=TRUE
_MODUL_BLOCK=FALSE
_MODUL_SLATER=TRUE
_MODUL_MRCC=FALSE
_MODUL_NBO6=FALSE
_MODUL_NECI=FALSE
_MODUL_AIMS=TRUE
_MODUL_HDF5=FALSE
_MODUL_GECCO=FALSE
_ISWINDOWS=FALSE
_MRCC_EXEC=
_FITC_AO_SAVED=FALSE
_FITC_MO_SAVED=FALSE
_LSTYP=SEWARD
_INTYP=INTS
_GEOMTYP=XYZ
_GRADTYP=ALASKA
_DIRECT=FALSE
_DKHO= -1.000000000000000    
_FNUC=  0.000000000000000    
_SYNCM=  0.000000000000000    
_BASIS=6-311G(D,P)
_ZCENTRE=MASS
_ZORIENT=  1.000000000000000    
_NELEC=  26.00000000000000    
!SPIN=  0.000000000000000    
_OPTCONV= 0.7542497261390754E-03
_QSDSTEP=  0.000000000000000    
_QSDIRC=  0.000000000000000    
_PROGRAM=FREQ
_CPUSTEP=  4.680000000000000    
_SYSSTEP= 0.1199999999999999    
_WALLSTEP=  4.800000000000000    
!DFSCF=  0.000000000000000    
!SCSGRD=  0.000000000000000    
_NCEN=  6.000000000000000    
_CPUTOT=  8.600000000000000    
_DFTEXFAC=  1.000000000000000    
_DMX=  0.000000000000000    
_DMY= 0.3871838687824664    
_DMZ= 0.5995007013853249    
_DMX_SCF=  0.000000000000000    
_DMY_SCF= 0.3871838687824664    
_DMZ_SCF= 0.5995007013853249    
_FREQUENCIES= 0.4022287020343787E-04
_HOMO=  3.200000000000000    
_EHOMO=-0.3572976334332060    
_LUMO=  11.10000000000000    
_ELUMO= 0.1322586566269413    
_ENERGY= -437.7402400675066    
_ENERGY_METHOD=HF
_ENERGY_BASIS=6-311G(D,P)
_GEOMETRY_METHOD=HF
_GEOMETRY_BASIS=6-311G(D,P)
_ENUC=  56.44308988788610    
_GRADENERG= -437.7402399964249    
_GRADEXFAC=  9999.000000000000    
_GRADMETHOD=  1.000000000000000    
_NMRMETHOD=  0.000000000000000    
_NMRMAGNET=  0.000000000000000    
_VIRIAL= 0.3112137818275468E-03
!GRID_FREEZE= -1.000000000000000    
!NEESE_INDEX=  0.000000000000000    
_ITERATIONS=  9.000000000000000    
_LASTNELEC=  26.00000000000000    
_LASTSPIN=  0.000000000000000    
_LASTSYM=  1.000000000000000    
_MPP_PROG=  0.000000000000000    
_MSNSTATES=  0.000000000000000    
_RS2PHASE=  0.000000000000000    
_NPROC_MPP=  1.000000000000000    
_NPROC_SMP=  6.000000000000000    
_NUMSTEP=  0.000000000000000    
_OPTCONVMX= 0.6840265306900016E-03
_OPTCONVRMS= 0.2666675480305183E-03
_OPTGRAD= 0.1816381944922838E-03
_OPTGRADMX= 0.1426304681932711E-03
_OPTGRADRMS= 0.6421879952398745E-04
!GMAXLAST= 0.1426304681932711E-03
!DMAXLAST= 0.6840265306900016E-03
!DELAST= 0.2027669154358591E-05
_OPTSTEP=  4.000000000000000    
_ORBITAL=  2100.200000000000    
_PI=  3.141592653589793    
_SEIG_MIN= 0.1003326432670546E-01
_SEWPROP=TRUE
_STATUS=  1.000000000000000    
_SYSTOT= 0.4900000000000000    
_VERSION=  2024001.000000000    
_WALLTOT=  9.090000000000000    
_ZPE= 0.4891709130174406E-01
_DATE=21-Sep-24
_LASTORB=0
_OUTPUT=/home/lme/Theoretische_Chemie/Nomodeco/ase_databank_integration/CH3SH.molpro/run/CH3SH_1.molpro/CH3SH_1.out
_PGROUP=Cs
_TIME=22:02:08
_LIBMOL=/usr/local/molpro/molpro_2024.1.0_sockets/lib/
_VIGRDC=  0.000000000000000    
!VIBCNT=  0.000000000000000    
!SURFREC=  0.000000000000000    
!XSURFREC=  0.000000000000000    
!XPOLYREC=  0.000000000000000    
!ROTREC=  0.000000000000000    
!POLYREC=  0.000000000000000    
!DIPREC=  0.000000000000000    
!DIP4DREC=  0.000000000000000    
!DIPROT=  0.000000000000000    
!DIP4DROT=  0.000000000000000    
!PTREC=  0.000000000000000    
!PT4DREC=  0.000000000000000    
!VSCFREC=  0.000000000000000    
!VCIREC=  0.000000000000000    
!PVCIREC=  0.000000000000000    
!VMP2REC=  0.000000000000000    
!VMCSCFREC=  0.000000000000000    
!VMRCIREC=  0.000000000000000    
!VIBSTATEREC=  0.000000000000000    
!VIBSTATECNT=  0.000000000000000    
!VIBINFO=  0.000000000000000    
!GAREC=  0.000000000000000    
!SCFORB=  21002.00000000000    
!DEFCORE=  5.000000000000000    
!SCORE=  1.000000000000000    
!NEWMOL=  0.000000000000000    
!NEWSYM=  0.000000000000000    
_SLFILES=slscratch
_NGSSTO=  9.000000000000000    
_SIN=SIN
_COS=COS
_TAN=TAN
_ACOS=ACOS
_ASIN=ASIN
_ATAN=ATAN
_COSH=COSH
_SINH=SINH
_TANH=TANH
_ABS=ABS
_MOD=MOD
_ERF=ERF
_REFC=REFC
_ERFC=ERFC
_HYPOT=HYPOT
_J0=J0
_J1=J1
_JN=JN
_GAMMA=GAMMA
_LGAMMA=LGAMMA
_Y0=Y0
_Y1=Y1
_YN=YN
_EXP=EXP
_LOG=LOG
_LOG10=LOG10
_SQRT=SQRT
_INT=INT
_NINT=NINT
_MAX=MAX
_MIN=MIN
_COSMO=  0.000000000000000    
_COSMOIT=  0.000000000000000    
_COSMOES=  0.000000000000000    
_COSMOEDS=  0.000000000000000    
_COSMOEC=  0.000000000000000    
_COSMOEDCORR=  0.000000000000000    
_FEPSI=  1.000000000000000    
_SL_IsMM=  0.000000000000000    
_SL_NSYM=  2.000000000000000    
_SL_System_BitSw=  0.000000000000000    
_SL_Unique_atoms=  0.000000000000000    
_SL_GRAD=  0.000000000000000    
_SL_MAXUPD_Hess=  5.000000000000000    
_SL_N_PRINT_COD=  5.000000000000000    
_SL_PRINT_CODES=  0.000000000000000    
_SL_BasType=  0.000000000000000    
_SL_Energy_Pred=  0.000000000000000    
_SL_New_Coords=  0.000000000000000    
_SL_Total_Nuclea=  0.000000000000000    
_SL_Highest_Mltp=  0.000000000000000    
_SL_Ref_Geom=  0.000000000000000    
_SL_Symmetry_ope=  1.000000000000000    
_SL_agrad=  0.000000000000000    
_SL_GrdMax=  0.000000000000000    
_SL_GrdNorm=  0.000000000000000    
_SL_GrdRMS=  0.000000000000000    
_SL_Hss_Q=  0.000000000000000    
_SL_Hss_X=  0.000000000000000    
_SL_BMxOld=  0.000000000000000    
_SL_KtB=  0.000000000000000    
_SL_TROld=  0.000000000000000    
_SL_No_of_Intern=  0.000000000000000    
_SL_Hess=  0.000000000000000    
_SL_K=  0.000000000000000    
!LATTICE= -1.000000000000000    
!NEWLATTICE=  0.000000000000000    
!LATGRAD_VAR=FALSE
!SEW_LATTICE=  1.000000000000000    
!AIC_ONEEL=  0.000000000000000    
!LOCAL=  0.000000000000000    
!SAVEDOM= -1.000000000000000    
!RESTDOM= -1.000000000000000    
!SAVEDOM_HF= -1.000000000000000    
!RESTDOM_HF= -1.000000000000000    
!HESSREC=  5300.200000000000    
!FREQREC=  5400.200000000000    
!NMODREC=  5450.200000000000    
!GTASKS=  0.000000000000000    
!HTASKS=  0.000000000000000    
!SAVEDOM_EOM= -1.000000000000000    
!RESTDOM_EOM= -1.000000000000000    
!GRADSTATE= -1.000000000000000    
!DEBUG=  0.000000000000000    
!CFIT_CPHF=  0.000000000000000    
!RDOMAUX_CPHF=  0.000000000000000    
!THRAO_CPHF= 0.1000000000000000E-11
!THRMO_CPHF= 0.1000000000000000E-11
!THROV_CPHF= 0.1000000000000000E-13
!THRSW_CPHF= 0.1000000000000000E-11
!THRPROD_CPHF= 0.1000000000000000E-11
!THRAOPR_CPHF= 0.1000000000000000E-11
!CFIT_SCFGRD=  0.000000000000000    
!RDOMAUX_SCFGRD=  0.000000000000000    
!THRAO_SCFGRD= 0.1000000000000000E-11
!THRMO_SCFGRD= 0.1000000000000000E-11
!THROV_SCFGRD= 0.1000000000000000E-13
!THRSW_SCFGRD= 0.1000000000000000E-11
!THRPROD_SCFGRD= 0.1000000000000000E-11
!THRAOPR_SCFGRD= 0.1000000000000000E-11
!LOCFIT_SCF=  0.000000000000000    
!LOCFIT_MP2=  0.000000000000000    
_RIDOM=  0.000000000000000    
!CC2_METHOD=  0.000000000000000    
_BASIS2006=FALSE
_SVDDEL= -1.000000000000000    
_SVDDELA= -1.000000000000000    
_SVDDELP= -1.000000000000000    
_SVDDELF= -1.000000000000000    
_SVDDELS= -1.000000000000000    
_SVDDEL_ABS= -1.000000000000000    
_SVDDELA_ABS= -1.000000000000000    
_SVDDELP_ABS= -1.000000000000000    
_SVDDELF_ABS= -1.000000000000000    
_SVDDELS_ABS= -1.000000000000000    
_MAXBASIS=  0.000000000000000    
!OPT_CONICAL=  0.000000000000000    
!CLEARSP_JGRID=  0.000000000000000    
_GRDHYBR=  0.000000000000000    
_STATEGRAD=  1.000000000000000    
_4EXT_NDISKS=  1.000000000000000    
!EMBEDFLAG=  1.000000000000000    
!EMBED=FALSE
!EMBED_F12=FALSE
!EMBEDNUC=  0.000000000000000    
_EMBEDENERGY=  0.000000000000000    
!EMBED_DFC=FALSE
!NUM_VOIDS=  0.000000000000000    
_IBODY=  0.000000000000000    
_EMBE_CORR=  0.000000000000000    
!EMBED_PROJ=FALSE
!EMB_PROJ_ZMU=  1000000.000000000    
!CORRECTION_HF=  0.000000000000000    
!EMBED_AORB=  0.000000000000000    
!EMBED_NACORR=  0.000000000000000    
!EMBED_MP2=FALSE
!EMBED_TRUNC_PERTURBATION=FALSE
!EMBED_FROZEN=  0.000000000000000    
!EMBED_ACTIVE=  0.000000000000000    
_CHANGE_BASIS=FALSE
_RESTORE_BASIS=FALSE
_FIX_EMBED_GUESS=FALSE
_EMBED_SCF=FALSE
_NEOBAS=FALSE
_NEOOVE=FALSE
_PRINEO=FALSE
_HUZINAGA_T=FALSE
_HUZINAGA_F=FALSE
_HUZINAGA=FALSE
_HUZINAGA_CORRECT=FALSE
!FASTLATGRAD=  1.000000000000000    
!FASTVLAMBDA= -1.000000000000000    
!IFORCE= -1.000000000000000    
!USESYM= -1.000000000000000    
_SINDEX=  0.000000000000000    
_AVDOM_OSV=  0.000000000000000    
_AVDOM_PNO=  0.000000000000000    
_AVDOM_PNOCC=  0.000000000000000    
_AVDOM_TNO=  0.000000000000000    
_AVDOM_TNOIT=  0.000000000000000    
_AVDOM_PAO=  0.000000000000000    
_AVDOM_LMO=  0.000000000000000    
_CC2OSV_FLAG=  0.000000000000000    
_EOMCCSD_CONV=FALSE
_TMADC2_FLAG=FALSE
_PROPADC2_FLAG=FALSE
_LEN_VirQ=  0.000000000000000    
_GRDCC2LR_FLAG=FALSE
_GRDADC2_FLAG=FALSE
_RO_VGLOBAL=  0.000000000000000    
_OPT=FALSE
_FREQ=FALSE
_HESS=FALSE
_CMRCC_callName=EMPTY
_CMRCC_callCount=  0.000000000000000    
_GECCO_CIROOT=  1.000000000000000    
_SYM_CATION=  2.000000000000000    
_MON_A=FALSE
_MON_B=FALSE
_MAXGEOM=  100.0000000000000    
!MAXGEOM=  100.0000000000000    
_NCORE=  0.000000000000000    
_NLARGECORE=  0.000000000000000    
GX1=  0.000000000000000    
GY1= 0.1229770286192557E-01
GZ1=  1.230746719164297    
GX2=  0.000000000000000    
GY2=-0.4431360801012668E-01
GZ2=-0.5869412787727850    
GX3=  0.000000000000000    
GY3=  1.267171322261146    
GZ3=-0.8125905830155877    
GX4=  0.000000000000000    
GY4= -1.015366688893723    
GZ4=  1.568563428712143    
GX5= 0.8870604402607520    
GY5= 0.5037830666463424    
GZ5=  1.604881148824099    
GX6=-0.8870604402607520    
GY6= 0.5037830666463424    
GZ6=  1.604881148824099    
CX1=  0.000000000000000    
CY1= 0.2323929037106586E-01
CZ1=  2.325774228002229    
SX2=  0.000000000000000    
SY2=-0.8374058273316218E-01
SZ2= -1.109158268118189    
HX3=  0.000000000000000    
HY3=  2.394606752053469    
HZ3= -1.535573653349442    
HX4=  0.000000000000000    
HY4= -1.918764958077235    
HZ4=  2.964155289369909    
HX5=  1.676301288082781    
HY5= 0.9520120221856788    
HZ5=  3.032785833852318    
HX6= -1.676301288082781    
HY6= 0.9520120221856788    
HZ6=  3.032785833852318    
[Atoms] Angs
C     1    6         0.0000000000        0.0122977029        1.2307467192
S     2   16         0.0000000000       -0.0443136080       -0.5869412788
H     3    1         0.0000000000        1.2671713223       -0.8125905830
H     4    1         0.0000000000       -1.0153666889        1.5685634287
H     5    1         0.8870604403        0.5037830666        1.6048811488
H     6    1        -0.8870604403        0.5037830666        1.6048811488
[GTO]
   1 0
 s    6  1.00
  0.4563240000D+04  0.1966650249D-02
  0.6820240000D+03  0.1523060193D-01
  0.1549730000D+03  0.7612690966D-01
  0.4445530000D+02  0.2608010331D+00
  0.1302900000D+02  0.6164620782D+00
  0.1827730000D+01  0.2210060280D+00
 s    3  1.00
  0.2096420000D+02  0.1146600807D+00
  0.4803310000D+01  0.9199996477D+00
  0.1459330000D+01 -0.3030682134D-02
 s    1  1.00
  0.4834560000D+00  0.1000000000D+01
 s    1  1.00
  0.1455850000D+00  0.1000000000D+01
 p    3  1.00
  0.2096420000D+02  0.4024869267D-01
  0.4803310000D+01  0.2375939567D+00
  0.1459330000D+01  0.8158538515D+00
 p    1  1.00
  0.4834560000D+00  0.1000000000D+01
 p    1  1.00
  0.1455850000D+00  0.1000000000D+01
 d    1  1.00
  0.6260000000D+00  0.1000000000D+01
  
   2 0
 s    6  1.00
  0.9341340000D+05  0.7429999567D-03
  0.1396170000D+05  0.5792999662D-02
  0.3169910000D+04  0.2995399825D-01
  0.9024560000D+03  0.1190279931D+00
  0.2971580000D+03  0.3684319785D+00
  0.1087020000D+03  0.5772989663D+00
 s    3  1.00
  0.1087020000D+03  0.1431860600D+00
  0.4315530000D+02  0.6244652619D+00
  0.1810790000D+02  0.2833661188D+00
 s    1  1.00
  0.5560090000D+01  0.1000000000D+01
 s    1  1.00
  0.2131830000D+01  0.1000000000D+01
 s    1  1.00
  0.4204030000D+00  0.1000000000D+01
 s    1  1.00
  0.1360450000D+00  0.1000000000D+01
 p    4  1.00
  0.4950400000D+03  0.8309002513D-02
  0.1172210000D+03  0.6402401937D-01
  0.3777490000D+02  0.2776140840D+00
  0.1405840000D+02  0.7450762254D+00
 p    2  1.00
  0.5565740000D+01  0.6137116720D+00
  0.2262970000D+01  0.4438177628D+00
 p    1  1.00
  0.8079940000D+00  0.1000000000D+01
 p    1  1.00
  0.2774600000D+00  0.1000000000D+01
 p    1  1.00
  0.7714100000D-01  0.1000000000D+01
 d    1  1.00
  0.6500000000D+00  0.1000000000D+01
  
   3 0
 s    3  1.00
  0.3386500000D+02  0.2549381454D-01
  0.5094790000D+01  0.1903731086D+00
  0.1158790000D+01  0.8521614860D+00
 s    1  1.00
  0.3258400000D+00  0.1000000000D+01
 s    1  1.00
  0.1027410000D+00  0.1000000000D+01
 p    1  1.00
  0.7500000000D+00  0.1000000000D+01
  
   4 0
 s    3  1.00
  0.3386500000D+02  0.2549381454D-01
  0.5094790000D+01  0.1903731086D+00
  0.1158790000D+01  0.8521614860D+00
 s    1  1.00
  0.3258400000D+00  0.1000000000D+01
 s    1  1.00
  0.1027410000D+00  0.1000000000D+01
 p    1  1.00
  0.7500000000D+00  0.1000000000D+01
  
   5 0
 s    3  1.00
  0.3386500000D+02  0.2549381454D-01
  0.5094790000D+01  0.1903731086D+00
  0.1158790000D+01  0.8521614860D+00
 s    1  1.00
  0.3258400000D+00  0.1000000000D+01
 s    1  1.00
  0.1027410000D+00  0.1000000000D+01
 p    1  1.00
  0.7500000000D+00  0.1000000000D+01
  
   6 0
 s    3  1.00
  0.3386500000D+02  0.2549381454D-01
  0.5094790000D+01  0.1903731086D+00
  0.1158790000D+01  0.8521614860D+00
 s    1  1.00
  0.3258400000D+00  0.1000000000D+01
 s    1  1.00
  0.1027410000D+00  0.1000000000D+01
 p    1  1.00
  0.7500000000D+00  0.1000000000D+01


[MO]
 Sym=      1.1
 Ene=     -91.9529
 Spin= Alpha
 Occup=    2.000000
1 0.000000753084901
2 -0.000000731858666
3 0.000007455880230
4 0.000058955691379
5 0.0
6 0.000000126339404
7 -0.000014747183426
8 0.0
9 0.000000579725822
10 0.000041613095180
11 0.0
12 -0.000005333420545
13 -0.000034248241485
14 0.000013541648511
15 0.000011317235732
16 -0.000024858884242
17 0.0
18 0.0
19 0.000001888391385
20 0.41105586971328
21 0.65497597869841
22 0.012242396587421
23 -0.001412992556215
24 0.000448735609141
25 -0.000286021373752
26 0.0
27 0.000095395502239
28 0.000075743203783
29 0.0
30 -0.000034927504484
31 -0.000027164543581
32 0.0
33 0.000015205493311
34 0.000016507542904
35 0.0
36 0.000043747918400
37 -0.000011602830774
38 0.0
39 -0.000064640238838
40 -0.000026305943289
41 -0.000020665693746
42 0.000023634248827
43 -0.000002968555081
44 0.0
45 0.0
46 -0.000008996350882
47 0.000005238284571
48 -0.000068202182222
49 0.000108075113751
50 0.0
51 0.000049127973189
52 -0.000008297535015
53 -0.000003325755259
54 -0.000014333942715
55 -0.000006079554327
56 0.0
57 -0.000007395092390
58 0.000000180091779
59 -0.000002780349148
60 -0.000018380037476
61 0.000018722929828
62 0.000007486299706
63 0.000004366830964
64 0.000000184273924
65 -0.000002780349148
66 -0.000018380037476
67 0.000018722929828
68 -0.000007486299706
69 0.000004366830964
70 0.000000184273924
 Sym=      2.1
 Ene=     -11.2586
 Spin= Alpha
 Occup=    2.000000
1 0.56339685480989
2 0.46654582758936
3 0.004281430895470
4 -0.001233819668035
5 0.0
6 -0.000037833747259
7 -0.000611326189630
8 0.0
9 0.000011152412603
10 0.000432967631532
11 0.0
12 0.000034710637377
13 -0.000019215875715
14 0.000100519216531
15 0.000095170294008
16 -0.000195689510539
17 0.0
18 0.0
19 0.000004882770538
20 -0.000000539277687
21 -0.000005646460406
22 0.000038401583401
23 -0.000127250629003
24 0.000185925495336
25 0.000331398041713
26 0.0
27 -0.000000453637790
28 -0.000018369466155
29 0.0
30 -0.000001633469122
31 -0.000077536916546
32 0.0
33 0.000003323308434
34 0.000123529033090
35 0.0
36 0.000008648775297
37 0.000402306895614
38 0.0
39 0.000062006298148
40 0.000015285263849
41 -0.000107607298892
42 -0.000110302613110
43 0.000217909912002
44 0.0
45 0.0
46 0.000023448992065
47 -0.000007447826055
48 -0.000004276663253
49 -0.000089297794465
50 0.0
51 -0.000014970021542
52 -0.000014141542605
53 0.000353317183411
54 0.000120713103542
55 0.000258237895650
56 0.0
57 -0.000000469473427
58 -0.000033080043042
59 0.000355354941067
60 0.000087496229048
61 0.000227175920445
62 0.000008022672385
63 0.000001522260643
64 -0.000027497315580
65 0.000355354941067
66 0.000087496229048
67 0.000227175920445
68 -0.000008022672385
69 0.000001522260643
70 -0.000027497315580
 Sym=      3.1
 Ene=      -8.9556
 Spin= Alpha
 Occup=    2.000000
1 -0.000067369333894
2 -0.000045362291449
3 0.000327473520200
4 0.001157316941356
5 0.0
6 -0.000006787498099
7 -0.000520774819360
8 0.0
9 0.000048867209225
10 0.001202723670980
11 0.0
12 -0.000228834775229
13 -0.001232071510880
14 0.000404065707387
15 0.000318470965094
16 -0.000722536672482
17 0.0
18 0.0
19 0.000046100870323
20 -0.11973644551910
21 -0.32488757506780
22 0.53311907136449
23 0.58625261035816
24 0.038517914277164
25 -0.012910329644761
26 0.0
27 0.001400950880505
28 0.001185345826532
29 0.0
30 0.003803016533019
31 0.003196229345190
32 0.0
33 0.000523461060872
34 0.000509785191267
35 0.0
36 0.001584469602943
37 0.000206385523279
38 0.0
39 -0.002801281190615
40 -0.001147467785660
41 -0.000727688251073
42 0.000668203292570
43 0.000059484958503
44 0.0
45 0.0
46 -0.000276325448296
47 0.000282662885271
48 -0.001984129700765
49 0.004648186984008
50 0.0
51 0.001182947899490
52 -0.000197015957677
53 -0.000111632248947
54 -0.000151347250710
55 -0.000227106075538
56 0.0
57 -0.000151966235424
58 -0.000072593814390
59 -0.000120227311735
60 -0.000288060536243
61 0.000883308520481
62 0.000161753142714
63 0.000099181651483
64 -0.000100838774951
65 -0.000120227311735
66 -0.000288060536243
67 0.000883308520481
68 -0.000161753142714
69 0.000099181651483
70 -0.000100838774951
 Sym=      4.1
 Ene=      -6.6380
 Spin= Alpha
 Occup=    2.000000
1 0.000053601821674
2 0.000103430422562
3 -0.000299346127148
4 -0.000934985306261
5 0.0
6 0.000017144264732
7 0.000196505742275
8 0.0
9 0.000027506498965
10 0.000046025508227
11 0.0
12 0.000304493991062
13 0.000112586220444
14 -0.000054354369438
15 -0.000073161038306
16 0.000127515407744
17 0.0
18 0.0
19 -0.000066907315869
20 0.000127054211202
21 0.000352851590806
22 -0.000722611783916
23 -0.000491209644673
24 0.000106945989348
25 0.000690119167792
26 0.0
27 0.27866978215258
28 -0.25106589412634
29 0.0
30 0.53101918512297
31 -0.47861266877857
32 0.0
33 0.035409183817972
34 -0.032175551765794
35 0.0
36 -0.002246580600613
37 0.002418668271806
38 0.0
39 0.000980352357669
40 -0.000771647235509
41 -0.000132496678433
42 0.000764038060765
43 -0.000631541382332
44 0.0
45 0.0
46 -0.000083174029487
47 0.000370546108224
48 0.000213215605165
49 -0.000652533866402
50 0.0
51 0.000270201738970
52 -0.000155586118170
53 0.000033884522328
54 0.000271752689589
55 0.000569915495300
56 0.0
57 0.000065448608369
58 -0.000021998365742
59 0.000004438149452
60 0.000250124853475
61 -0.000001531133444
62 -0.000058116710621
63 -0.000070022349997
64 -0.000035678761176
65 0.000004438149452
66 0.000250124853475
67 -0.000001531133444
68 0.000058116710621
69 -0.000070022349997
70 -0.000035678761176
 Sym=      5.1
 Ene=      -6.6369
 Spin= Alpha
 Occup=    2.000000
1 -0.000066648551364
2 -0.000122859324009
3 0.000263761783885
4 0.001502365141363
5 0.0
6 0.000022805563798
7 -0.000198877877723
8 0.0
9 -0.000017037218851
10 -0.000140900940865
11 0.0
12 -0.000144701325103
13 -0.000560132769142
14 -0.000005706370211
15 0.000033624037428
16 -0.000027917667217
17 0.0
18 0.0
19 -0.000030330239210
20 0.000884443991098
21 0.002455506895046
22 -0.004964376823317
23 -0.003377394249119
24 0.001409686338992
25 -0.001338299705813
26 0.0
27 0.25146204994468
28 0.27888613254535
29 0.0
30 0.47867559934018
31 0.53107932988097
32 0.0
33 0.031232165926326
34 0.034982431897616
35 0.0
36 -0.002076365432100
37 -0.002728703744764
38 0.0
39 0.000561288095280
40 0.000425766322657
41 -0.000283554322670
42 0.000188712952268
43 0.000094841370402
44 0.0
45 0.0
46 0.000514757302793
47 0.000228768513126
48 0.000432591419033
49 -0.000066232625083
50 0.0
51 0.000004729908517
52 0.000001444321701
53 0.000038477449225
54 -0.000553616919116
55 0.000076299301577
56 0.0
57 -0.000115183297366
58 0.000074891001203
59 -0.000002614601046
60 -0.000282697959353
61 -0.000094224070420
62 0.000038275672096
63 0.000034199037206
64 0.000042579691253
65 -0.000002614601046
66 -0.000282697959353
67 -0.000094224070420
68 -0.000038275672096
69 0.000034199037206
70 0.000042579691253
 Sym=      1.2
 Ene=      -6.6352
 Spin= Alpha
 Occup=    2.000000
1 0.0
2 0.0
3 0.0
4 0.0
5 0.000024302354629
6 0.0
7 0.0
8 0.000015909880267
9 0.0
10 0.0
11 0.000106656719611
12 0.0
13 0.0
14 0.0
15 0.0
16 0.0
17 -0.000026357414947
18 -0.000074970087392
19 0.0
20 0.0
21 0.0
22 0.0
23 0.0
24 0.0
25 0.0
26 0.37627094687917
27 0.0
28 0.0
29 0.71518321195226
30 0.0
31 0.0
32 0.045036667383167
33 0.0
34 0.0
35 -0.002599695261047
36 0.0
37 0.0
38 0.000852407691657
39 0.0
40 0.0
41 0.0
42 0.0
43 0.0
44 0.000365604946576
45 0.000340484102382
46 0.0
47 0.0
48 0.0
49 0.0
50 0.000038646444826
51 0.0
52 0.0
53 0.0
54 0.0
55 0.0
56 -0.000023114583097
57 0.0
58 0.0
59 -0.000018679490985
60 0.000095455508217
61 -0.000293901825975
62 -0.000030913642930
63 -0.000004637682925
64 -0.000008280670716
65 0.000018679490985
66 -0.000095455508217
67 0.000293901825975
68 -0.000030913642930
69 0.000004637682925
70 0.000008280670716
 Sym=      6.1
 Ene=      -1.0417
 Spin= Alpha
 Occup=    2.000000
1 -0.078120510195005
2 -0.12905531194270
3 0.32527475519324
4 0.19043904917268
5 0.0
6 -0.001036906724648
7 -0.014042492523015
8 0.0
9 -0.002024477442276
10 -0.056526775659347
11 0.0
12 0.005222756877609
13 -0.006315272984870
14 -0.008306273301347
15 -0.007149931519902
16 0.015456204821249
17 0.0
18 0.0
19 0.000481111035862
20 0.021573504626470
21 0.062110138578147
22 -0.12959289104678
23 -0.24065918567757
24 0.42017054064602
25 0.25893658113816
26 0.0
27 -0.007003866600011
28 -0.015736035789260
29 0.0
30 -0.014783133365136
31 -0.032893637508450
32 0.0
33 0.018740929730324
34 0.041922842738046
35 0.0
36 0.019407818854467
37 0.073623879359804
38 0.0
39 0.015481975111315
40 -0.000582588646468
41 -0.018305832134941
42 -0.005059588720694
43 0.023365420855635
44 0.0
45 0.0
46 0.000290853967458
47 0.050886488679023
48 0.075964019192033
49 -0.020568646532828
50 0.0
51 -0.016075873809133
52 0.002888917380152
53 0.057642992462872
54 0.081546185579708
55 0.000855112787132
56 0.0
57 0.016197495425407
58 -0.005993710547963
59 0.056767320059562
60 0.076616149202271
61 -0.005876465898933
62 -0.013667343599491
63 -0.007788994333333
64 -0.006087200047791
65 0.056767320059562
66 0.076616149202271
67 -0.005876465898933
68 0.013667343599491
69 -0.007788994333333
70 -0.006087200047791
 Sym=      7.1
 Ene=      -0.8726
 Spin= Alpha
 Occup=    2.000000
1 0.066704065061495
2 0.11063237748836
3 -0.28251868403377
4 -0.21716398473713
5 0.0
6 0.004228717048263
7 -0.055783072557952
8 0.0
9 0.006798292328968
10 -0.084157439952169
11 0.0
12 0.003611736802680
13 -0.025809949222802
14 -0.006938237626413
15 -0.007423880149702
16 0.014362117776116
17 0.0
18 0.0
19 -0.000805301105262
20 0.022204080234022
21 0.064158317072064
22 -0.13592100442337
23 -0.24653253495102
24 0.43686473216003
25 0.32646128891811
26 0.0
27 -0.013706060323479
28 0.011818855268328
29 0.0
30 -0.028518627287372
31 0.023979734535921
32 0.0
33 0.037121813865369
34 -0.032958633934354
35 0.0
36 0.048819339161128
37 -0.052761160539449
38 0.0
39 0.010408182708524
40 0.002814627903013
41 -0.004388732408246
42 0.023603229818516
43 -0.019214497410270
44 0.0
45 0.0
46 -0.005494773966775
47 0.082642566911250
48 0.12988304165374
49 0.004711684630333
50 0.0
51 -0.021977080132552
52 0.003145341825313
53 -0.073453590397838
54 -0.10171175311930
55 -0.009195891730461
56 0.0
57 -0.014851825588790
58 0.002776003279362
59 -0.070529348872749
60 -0.096962762598588
61 -0.010791245649322
62 0.012606792741233
63 0.007069595756685
64 0.002780902299769
65 -0.070529348872749
66 -0.096962762598588
67 -0.010791245649322
68 -0.012606792741233
69 0.007069595756685
70 0.002780902299769
 Sym=      8.1
 Ene=      -0.6121
 Spin= Alpha
 Occup=    2.000000
1 -0.003588253016386
2 -0.005843298826945
3 0.015491985842146
4 0.002606820866023
5 0.0
6 0.15873031721724
7 0.042280041308199
8 0.0
9 0.25559069691244
10 0.075760986256254
11 0.0
12 0.18182340392976
13 0.047417472958728
14 0.025990450723125
15 -0.015852559831966
16 -0.010137890891159
17 0.0
18 0.0
19 0.004720100606018
20 -0.004775380189269
21 -0.013833261602149
22 0.029678754256835
23 0.054573110063605
24 -0.10153802039253
25 -0.10216002731903
26 0.0
27 -0.039887722101426
28 0.013258410629630
29 0.0
30 -0.080646050661814
31 0.027302658312845
32 0.0
33 0.10804808281670
34 -0.037297817947147
35 0.0
36 0.20420533619335
37 -0.063345258898430
38 0.0
39 0.029709665913341
40 0.004263633814486
41 -0.007278278063347
42 0.034217507463116
43 -0.026939229399769
44 0.0
45 0.0
46 0.012710719289686
47 0.075554472538814
48 0.13957644850774
49 0.055695212729299
50 0.0
51 -0.013065913980179
52 0.003262732367404
53 -0.11535618071849
54 -0.16928812350092
55 -0.046473040942560
56 0.0
57 -0.009980373250805
58 0.009184976336191
59 0.079490370619268
60 0.11591118652954
61 0.032487163439415
62 -0.009974437767813
63 0.002352653963041
64 -0.001924681993494
65 0.079490370619268
66 0.11591118652954
67 0.032487163439415
68 0.009974437767813
69 0.002352653963041
70 -0.001924681993494
 Sym=      2.2
 Ene=      -0.5966
 Spin= Alpha
 Occup=    2.000000
1 0.0
2 0.0
3 0.0
4 0.0
5 0.18826331500517
6 0.0
7 0.0
8 0.30238652181753
9 0.0
10 0.0
11 0.20254214506365
12 0.0
13 0.0
14 0.0
15 0.0
16 0.0
17 0.026468791404475
18 0.011195162987639
19 0.0
20 0.0
21 0.0
22 0.0
23 0.0
24 0.0
25 0.0
26 -0.021731205471976
27 0.0
28 0.0
29 -0.043611631142330
30 0.0
31 0.0
32 0.058936627246742
33 0.0
34 0.0
35 0.12285737946994
36 0.0
37 0.0
38 0.025674794248908
39 0.0
40 0.0
41 0.0
42 0.0
43 0.0
44 0.004259605125020
45 0.022729757644703
46 0.0
47 0.0
48 0.0
49 0.0
50 0.003321480360732
51 0.0
52 0.0
53 0.0
54 0.0
55 0.0
56 0.010092215818886
57 0.0
58 0.0
59 0.13483766009038
60 0.20247235028588
61 0.065563053292307
62 -0.008881287630485
63 -0.009831919890706
64 -0.007304162818289
65 -0.13483766009038
66 -0.20247235028588
67 -0.065563053292307
68 -0.008881287630485
69 0.009831919890706
70 0.007304162818289
 Sym=      9.1
 Ene=      -0.5344
 Spin= Alpha
 Occup=    2.000000
1 0.002186429704307
2 0.004140707022793
3 -0.009395116468586
4 -0.065289669230574
5 0.0
6 -0.10095316136157
7 0.11186075518480
8 0.0
9 -0.16170519736797
10 0.20165257835788
11 0.0
12 -0.11059310957572
13 0.14188603273132
14 -0.000573124135510
15 0.028999241215770
16 -0.028426117080260
17 0.0
18 0.0
19 -0.012978369303521
20 -0.002844257487248
21 -0.008166870423702
22 0.016886140068013
23 0.034728768026063
24 -0.064123277638913
25 -0.065882245957208
26 0.0
27 -0.038267348623205
28 0.046323603368533
29 0.0
30 -0.077578047984369
31 0.094370529582775
32 0.0
33 0.10772066898836
34 -0.13046911387357
35 0.0
36 0.18786761586114
37 -0.24298461441651
38 0.0
39 0.036579882641604
40 -0.029440783068751
41 -0.001420720895638
42 0.058197632438269
43 -0.056776911542631
44 0.0
45 0.0
46 -0.027614214493533
47 0.11337508262475
48 0.23113497096826
49 0.10714598097332
50 0.0
51 -0.023947039138686
52 -0.000422711071796
53 0.12066607787658
54 0.19125915697761
55 0.090794162288507
56 0.0
57 0.011080039040641
58 0.001740737030695
59 -0.009443084289049
60 -0.013250289508591
61 -0.006993767657500
62 0.002357345666021
63 -0.004602341458233
64 0.007279250590203
65 -0.009443084289049
66 -0.013250289508591
67 -0.006993767657500
68 -0.002357345666021
69 -0.004602341458233
70 0.007279250590203
 Sym=     10.1
 Ene=      -0.4588
 Spin= Alpha
 Occup=    2.000000
1 -0.007523890845909
2 -0.012809530677268
3 0.026775277119907
4 0.12510902218968
5 0.0
6 -0.047614248084517
7 -0.099894708277023
8 0.0
9 -0.076411668665978
10 -0.18092525588152
11 0.0
12 -0.029404666302366
13 -0.15006397733825
14 -0.018975027619638
15 -0.002617779922677
16 0.021592807542315
17 0.0
18 0.0
19 -0.011799435226303
20 -0.010765790099109
21 -0.031406840149494
22 0.069358348324555
23 0.11910310191484
24 -0.20761600153973
25 -0.36754918842841
26 0.0
27 -0.054898369504356
28 -0.056125816096502
29 0.0
30 -0.11035571928260
31 -0.11340753736798
32 0.0
33 0.15390803671370
34 0.15854702873133
35 0.0
36 0.30030905394736
37 0.31371964434728
38 0.0
39 0.11759636981180
40 0.090468310489543
41 -0.037427237397960
42 0.009874577725623