
 Working directory              : /tmp/lme/molpro.sTppOWRu4r/
 Global scratch directory       : /tmp/lme/molpro.sTppOWRu4r/
 Wavefunction directory         : /home/lme/wfu/
 Main file repository           : /tmp/lme/molpro.sTppOWRu4r/

 id        : liedlgroup

 Nodes     nprocs
 sv1-c724     1
 GA implementation: MPI file
 GA implementation (serial work in mppx): MPI file

 Using customized tuning parameters: mindgm=1; mindgv=20; mindgc=4; mindgr=1; noblas=0; minvec=7
 default implementation of scratch files=df  


 Variables initialized (1042), CPU time= 0.01 sec
 
            orient,mass
            geometry=initial.xyz
 Including file /home/lme/Theoretische_Chemie/Nomodeco/ase_databank_integration/CH3SH.molpro/run/CH3SH_1.molpro/initial.xyz
            mass, iso
            basis=6-311g(d,p)
            {hf
            start, atden}
            optg;
            {frequencies, symm=auto, print=0, analytical}
            put, molden, CH3SH.molden
 Commands initialized (847), CPU time= 0.00 sec, 718 directives.
 Default parameters read. Elapsed time= 0.06 sec

 Checking input...
 Passed
1


                                         ***  PROGRAM SYSTEM MOLPRO  ***
                                       Copyright, TTI GmbH Stuttgart, 2015
                                    Version 2024.1 linked Wed Jan 31 11:42:09 2024


 **********************************************************************************************************************************
 LABEL *                                                                                                                                                                 
  (6 PROC) 64 bit serial version                                                         DATE: 21-Sep-24          TIME: 22:02:08  
 **********************************************************************************************************************************

 SHA1:             675817fde4514a4a933b69e420913a90cee4ef91
 **********************************************************************************************************************************

 Memory per process:        32 MW
 Total memory per node:     32 MW

 GA preallocation disabled
 GA check disabled

 Variable memory set to 32.0 MW

 ZCENTRE=MASS


 Geometry recognized as XYZ



 Using masses of most abundant isotopes

 **********************************************************************************************************************************
 SETTING BASIS          =    6-311G(D,P)


 Recomputing integrals since basis changed


 Using spherical harmonics

 Library entry C      S 6-311G               selected for orbital group  1
 Library entry C      P 6-311G               selected for orbital group  1
 Library entry C      D 6-311G*              selected for orbital group  1
 Library entry S      S 6-311G               selected for orbital group  2
 Library entry S      P 6-311G               selected for orbital group  2
 Library entry S      D 6-311G*              selected for orbital group  2
 Library entry H      S 6-311G               selected for orbital group  3
 Library entry H      P 6-311G**             selected for orbital group  3


 PROGRAM * SEWARD (Integral evaluation for generally contracted gaussian basis sets)     Author: Roland Lindh, 1990

 Geometry written to block  1 of record 700

 Orientation using atomic masses  
 Molecule type: Asymmetric top
 Symmetry elements: X
 Rotational constants:      12.4146456     12.9492131    103.3508250 GHz

 Point group  Cs  



 ATOMIC COORDINATES

 NR  ATOM    CHARGE       X              Y              Z

   1  C       6.00    0.000000000    0.021527391    2.318073966
   2  S      16.00    0.000000000   -0.083463768   -1.108990000
   3  H       1.00    0.000000000    2.421471353   -1.485190741
   4  H       1.00    0.000000000   -1.933596457    2.967670051
   5  H       1.00    1.686125142    0.951796303    3.049010793
   6  H       1.00   -1.686125142    0.951796303    3.049010793

 Bond lengths in Bohr (Angstrom)

 1-2  3.428671837  1-4  2.060214633  1-5  2.059778360  1-6  2.059778360  2-3  2.533027231
     ( 1.814375000)     ( 1.090218633)     ( 1.089987767)     ( 1.089987767)     ( 1.340420285)

 Bond angles

  1-2-3   96.78630762   2-1-4  106.62447218   2-1-5  111.62469353   2-1-6  111.62469353

  4-1-5  108.46395150   4-1-6  108.46395150   5-1-6  109.88887319

 NUCLEAR CHARGE:                   26
 NUMBER OF PRIMITIVE AOS:         110
 NUMBER OF SYMMETRY AOS:          108
 NUMBER OF CONTRACTIONS:           68   (   48A'  +   20A"  )
 NUMBER OF INNER CORE ORBITALS:     1   (    1A'  +    0A"  )
 NUMBER OF OUTER CORE ORBITALS:     5   (    4A'  +    1A"  )
 NUMBER OF VALENCE ORBITALS:       12   (    9A'  +    3A"  )


 NUCLEAR REPULSION ENERGY   56.36232517

 Eigenvalues of metric

         1 0.102E-01 0.228E-01 0.256E-01 0.306E-01 0.430E-01 0.501E-01 0.598E-01 0.776E-01
         2 0.228E-01 0.484E-01 0.989E-01 0.116E+00 0.309E+00 0.341E+00 0.414E+00 0.458E+00


 Contracted 2-electron integrals neglected if value below      1.0D-11
 AO integral compression algorithm  1   Integral accuracy      1.0D-11

     7.602 MB (compressed) written to integral file ( 49.9%)


 NUMBER OF SORTED TWO-ELECTRON INTEGRALS:    1455111.     BUFFER LENGTH:  32768
 NUMBER OF SEGMENTS:   1  SEGMENT LENGTH:    1455111      RECORD LENGTH: 524288

 Memory used in sort:       2.01 MW

 SORT1 READ     1867506. AND WROTE     1363402. INTEGRALS IN      4 RECORDS. CPU TIME:     0.02 SEC, REAL TIME:     0.02 SEC
 SORT2 READ     1363402. AND WROTE     1455111. INTEGRALS IN     29 RECORDS. CPU TIME:     0.05 SEC, REAL TIME:     0.06 SEC

 FILE SIZES:   FILE 1:    37.8 MBYTE,  FILE 4:    16.8 MBYTE,   TOTAL:     54.7 MBYTE

 OPERATOR DM      FOR CENTER  0  COORDINATES:    0.000000    0.000000    0.000000


 **********************************************************************************************************************************
 DATASETS  * FILE   NREC   LENGTH (MB)   RECORD NAMES
              1      19       34.28       500      610      700      900      950      970     1000      129      960     1100   
                                          VAR    BASINP    GEOM    SYMINP    ZMAT    AOBASIS   BASIS     P2S    ABASIS      S 
                                         1400     1410     1200     1210     1080     1600     1650     1300     1700   
                                           T        V       H0       H01     AOSYM     SMH    MOLCAS    ERIS     OPER   

 PROGRAMS   *        TOTAL       INT
 CPU TIMES  *         0.42      0.31
 REAL TIME  *         0.49 SEC
 DISK USED  *        52.54 MB
 **********************************************************************************************************************************


 Program * Restricted Hartree-Fock

 Orbital guess generated from atomic densities.

 Initial occupancy:  10   3

 NELEC=   26   SYM=1   MS2= 0   THRE=1.0D-08   THRD=1.0D-06   THRG=1.0D-06  HFMA2=F  DIIS_START=2   DIIS_MAX=10   DIIS_INCORE=F

 Level shifts:    0.00 (CLOSED)    0.00 (OPEN)    0.30 (GAP_MIN)

 ITER           ETOT              DE          GRAD        DDIFF     DIIS  NEXP   TIME(IT)  TIME(TOT)  DIAG
   1     -437.71465833    -437.71465833     0.00D+00     0.10D+00     0     0       0.01      0.03    start
   2     -437.73773193      -0.02307360     0.57D-02     0.68D-02     1     0       0.01      0.04    diag
   3     -437.73971182      -0.00197990     0.17D-02     0.15D-02     2     0       0.01      0.05    diag
   4     -437.73995287      -0.00024104     0.52D-03     0.75D-03     3     0       0.00      0.05    diag
   5     -437.73996341      -0.00001054     0.11D-03     0.16D-03     4     0       0.01      0.06    diag
   6     -437.73996397      -0.00000056     0.24D-04     0.40D-04     5     0       0.01      0.07    diag
   7     -437.73996400      -0.00000003     0.53D-05     0.99D-05     6     0       0.00      0.07    diag
   8     -437.73996401      -0.00000000     0.17D-05     0.22D-05     7     0       0.01      0.08    fixocc
   9     -437.73996401      -0.00000000     0.46D-06     0.72D-06     8     0       0.01      0.09    diag
  10     -437.73996401      -0.00000000     0.14D-06     0.18D-06     0     0       0.00      0.09    diag/orth

 Final occupancy:  10   3

 !RHF STATE 1.1 Energy               -437.739964007243
  RHF One-electron energy            -715.108566178645
  RHF Two-electron energy             221.006277005001
  RHF Kinetic energy                  437.684784820538
  RHF Nuclear energy                   56.362325166400
  RHF Virial quotient                  -1.000126070607

 !RHF STATE 1.1 Dipole moment           0.00000000     0.37814910     0.58948732
 Dipole moment /Debye                   0.00000000     0.96115913     1.49832733

 Orbital energies:

           1.1          2.1          3.1          4.1          5.1          6.1          7.1          8.1          9.1         10.1
    -91.954269   -11.260664    -8.956832    -6.639174    -6.638081    -1.040784    -0.869425    -0.609744    -0.531237    -0.461020

          11.1         12.1
      0.130432     0.162586

           1.2          2.2          3.2          4.2          5.2
     -6.636416    -0.592889    -0.357471     0.210976     0.324547


 HOMO      3.2    -0.357471 =      -9.7273eV
 LUMO     11.1     0.130432 =       3.5492eV
 LUMO-HOMO         0.487903 =      13.2765eV

 Orbitals saved in record  2100.2


 **********************************************************************************************************************************
 DATASETS  * FILE   NREC   LENGTH (MB)   RECORD NAMES
              1      19       34.28       500      610      700      900      950      970     1000      129      960     1100   
                                          VAR    BASINP    GEOM    SYMINP    ZMAT    AOBASIS   BASIS     P2S    ABASIS      S 
                                         1400     1410     1200     1210     1080     1600     1650     1300     1700   
                                           T        V       H0       H01     AOSYM     SMH    MOLCAS    ERIS     OPER   

              2       4        0.51       700     1000      520     2100   
                                         GEOM     BASIS   MCVARS     RHF  

 PROGRAMS   *        TOTAL    HF-SCF       INT
 CPU TIMES  *         0.51      0.10      0.31
 REAL TIME  *         0.59 SEC
 DISK USED  *        52.54 MB
 **********************************************************************************************************************************


 PROGRAM * OPT (Geometry optimization)     Authors: F. Eckert and H.-J. Werner


 BFGS update of hessian

 *** Long output written to logfile /home/lme/Theoretische_Chemie/Nomodeco/ase_databank_integration/CH3SH.molpro/run/CH3SH_1.molpro/CH3SH_1.log ***


 Geometry optimization using default procedure for command HF-SCF

 Geometry written to block  1 of record 700

 PQS Optimization using delocalized internal coordinates

 Point group cs. Number of degrees of freedom:    8

 ITER.   ENERGY(OLD)    ENERGY(NEW)      DE          GRADMAX     GRADNORM    GRADRMS     STEPMAX     STEPLEN     STEPRMS   CPU-time
   1  -437.73996401  -437.74021791    -0.00025390  0.00876352  0.01293469  0.00457311  0.03066645  0.05002116  0.01768515      0.79
   2  -437.74021791  -437.74023797    -0.00002006  0.00178781  0.00320321  0.00113251  0.00944369  0.01565938  0.00553643      1.56
   3  -437.74023797  -437.74024000    -0.00000203  0.00064133  0.00108812  0.00038471  0.00240370  0.00385603  0.00136331      2.33
   4  -437.74024000  -437.74024007    -0.00000007  0.00014263  0.00018164  0.00006422  0.00068403  0.00075425  0.00026667      3.10

 END OF GEOMETRY OPTIMIZATION.

 Geometry written to block  1 of record 700

 Recomputing wavefunction for reoriented structure

 Current geometry (xyz format, in Angstrom)

    6
 HF-SCF000/6-311G(D,P)  ENERGY=-437.74024007
 C          0.0000000000        0.0122977029        1.2307467192
 S          0.0000000000       -0.0443136080       -0.5869412788
 H          0.0000000000        1.2671713223       -0.8125905830
 H          0.0000000000       -1.0153666889        1.5685634287
 H          0.8870604403        0.5037830666        1.6048811488
 H         -0.8870604403        0.5037830666        1.6048811488

 **********************************************************************************************************************************


 **********************************************************************************************************************************
 DATASETS  * FILE   NREC   LENGTH (MB)   RECORD NAMES
              1      19       34.28       500      610      700      900      950      970     1000      129      960     1100   
                                          VAR    BASINP    GEOM    SYMINP    ZMAT    AOBASIS   BASIS     P2S    ABASIS      S 
                                         1400     1410     1200     1210     1080     1600     1650     1300     1700   
                                           T        V       H0       H01     AOSYM     SMH    MOLCAS    ERIS     OPER   

              2       4        0.51       700     1000      520     2100   
                                         GEOM     BASIS   MCVARS     RHF  

 PROGRAMS   *        TOTAL      OPTG    HF-SCF       INT
 CPU TIMES  *         3.92      3.41      0.10      0.31
 REAL TIME  *         4.29 SEC
 DISK USED  *        52.97 MB
 **********************************************************************************************************************************


 PROGRAM * HESSIAN

 PROGRAM * MCKINLEY (Hessian of the energy)     Author: A. Bernhardsson, R. Lindh

 Orbitals from record         2100.2

 Number of closed-shell orbitals: 13 ( 10  3 )
 Number of occupied orbitals:     13 ( 10  3 )

 Number of electrons= 26     Singlet     Space symmetry=1      Wavefunction type: CLOSED          


 McKinley needed      3.57 seconds of CPU time

 Entering CPHF calculation

 CPHF needed 141 iterations for 18 perturbations.  Total CPU time:    1.10 sec


 HF-SCF hessian saved to record  5300.2

 PROGRAM * FREQUENCIES (Calculation of harmonic vibrational spectra for HF-SCF)


 Permanent Dipole Moment [debye]
     1-   3    0.000000    0.000000    0.000000

 Dipole Moment Norm    0.0000000 [debye]

 Dipole Moment Derivatives [debye/ang]
              1             2             3             4             5             6             7             8
    1    0.00000000    0.00000000    0.00000000    0.00000000    0.00000000    0.00000000    0.00000000    0.00000000
    2    0.00000000    0.00000000    0.00000000    0.00000000    0.00000000    0.00000000    0.00000000    0.00000000
    3    0.00000000    0.00000000    0.00000000    0.00000000    0.00000000    0.00000000    0.00000000    0.00000000
              9            10            11            12            13            14            15            16
    1    0.00000000    0.00000000    0.00000000    0.00000000    0.00000000    0.00000000    0.00000000    0.00000000
    2    0.00000000    0.00000000    0.00000000    0.00000000    0.00000000    0.00000000    0.00000000    0.00000000
    3    0.00000000    0.00000000    0.00000000    0.00000000    0.00000000    0.00000000    0.00000000    0.00000000
             17            18
    1    0.00000000    0.00000000
    2    0.00000000    0.00000000
    3    0.00000000    0.00000000

 Projecting out rotations and translations

 Force Constants (Second Derivatives of the Energy) in [a.u.]
                             CX1         CY1         CZ1         SX2         SY2     
           CX1           0.6120276
           CY1          -0.0000000   0.6249379
           CZ1          -0.0000000   0.0104717   0.4120772
           SX2          -0.0367567   0.0000000  -0.0000000   0.0255817
           SY2           0.0000000  -0.0626953  -0.0030929   0.0000000   0.3546975
           SZ2           0.0000000  -0.0392563  -0.1649679  -0.0000000  -0.0120420
           HX3           0.0019336  -0.0000000   0.0000000  -0.0023886   0.0000000
           HY3           0.0000000   0.0020377  -0.0011644   0.0000000  -0.2998958
           HZ3           0.0000000   0.0343950  -0.0055913   0.0000000   0.0123082
           HX4          -0.0560777   0.0000000   0.0000000  -0.0000487   0.0000000
           HY4          -0.0000000  -0.3243058   0.0853152   0.0000000   0.0038607
           HZ4          -0.0000000   0.0870014  -0.0783052   0.0000000   0.0307042
           HX5          -0.2605633  -0.1108555  -0.0787934   0.0068061   0.0027075
           HY5          -0.1093442  -0.1199873  -0.0457648   0.0012934   0.0020165
           HZ5          -0.0851430  -0.0463059  -0.0816064  -0.0205976  -0.0139387
           HX6          -0.2605633   0.1108555   0.0787934   0.0068061  -0.0027075
           HY6           0.1093442  -0.1199873  -0.0457648  -0.0012934   0.0020165
           HZ6           0.0851430  -0.0463059  -0.0816064   0.0205976  -0.0139387
                             SZ2         HX3         HY3         HZ3         HX4     
           SZ2           0.2559425
           HX3          -0.0000000   0.0016372
           HY3           0.0457586  -0.0000000   0.2955806
           HZ3          -0.0336905  -0.0000000  -0.0449069   0.0438833
           HX4           0.0000000  -0.0001379   0.0000000   0.0000000   0.0521520
           HY4          -0.0001323   0.0000000   0.0013891  -0.0016797   0.0000000
           HZ4          -0.0101284   0.0000000  -0.0004852  -0.0092570  -0.0000000
           HX5           0.0023531  -0.0005221   0.0003104  -0.0006262   0.0020562
           HY5           0.0028360   0.0010248   0.0004442  -0.0000583  -0.0291660
           HZ5          -0.0235779   0.0003152   0.0003989   0.0023277   0.0110064
           HX6          -0.0023531  -0.0005221  -0.0003104   0.0006262   0.0020562
           HY6           0.0028360  -0.0010248   0.0004442  -0.0000583   0.0291660
           HZ6          -0.0235779  -0.0003152   0.0003989   0.0023277  -0.0110064
                             HY4         HZ4         HX5         HY5         HZ5     
           HY4           0.3460512
           HZ4          -0.0922142   0.0870861
           HX5           0.0008927   0.0014484   0.2737518
           HY5          -0.0134976  -0.0125030   0.1215684   0.1208194
           HZ5           0.0043555   0.0053023   0.0850185   0.0484067   0.0915248
           HX6          -0.0008927  -0.0014484  -0.0215287   0.0146235   0.0094005
           HY6          -0.0134976  -0.0125030  -0.0146235   0.0102047   0.0070835
           HZ6           0.0043555   0.0053023  -0.0094005   0.0070835   0.0060295
                             HX6         HY6         HZ6     
           HX6           0.2737518
           HY6          -0.1215684   0.1208194
           HZ6          -0.0850185   0.0484067   0.0915248


 Atomic Masses
     1-   6   12.000000   31.972070    1.007825    1.007825    1.007825    1.007825

 Mass weighted Second Derivative Matrix
                             CX1         CY1         CZ1         SX2         SY2     
           CX1           0.0510023
           CY1          -0.0000000   0.0520782
           CZ1          -0.0000000   0.0008726   0.0343398
           SX2          -0.0018766   0.0000000  -0.0000000   0.0008001
           SY2           0.0000000  -0.0032008  -0.0001579   0.0000000   0.0110940
           SZ2           0.0000000  -0.0020042  -0.0084222  -0.0000000  -0.0003766
           HX3           0.0005560  -0.0000000   0.0000000  -0.0004208   0.0000000
           HY3           0.0000000   0.0005859  -0.0003348   0.0000000  -0.0528314
           HZ3           0.0000000   0.0098904  -0.0016078   0.0000000   0.0021683
           HX4          -0.0161253   0.0000000   0.0000000  -0.0000086   0.0000000
           HY4          -0.0000000  -0.0932549   0.0245326   0.0000000   0.0006801
           HZ4          -0.0000000   0.0250174  -0.0225168   0.0000000   0.0054090
           HX5          -0.0749256  -0.0318768  -0.0226572   0.0011990   0.0004770
           HY5          -0.0314422  -0.0345026  -0.0131598   0.0002279   0.0003552
           HZ5          -0.0244831  -0.0133154  -0.0234661  -0.0036286  -0.0024555
           HX6          -0.0749256   0.0318768   0.0226572   0.0011990  -0.0004770
           HY6           0.0314422  -0.0345026  -0.0131598  -0.0002279   0.0003552
           HZ6           0.0244831  -0.0133154  -0.0234661   0.0036286  -0.0024555
                             SZ2         HX3         HY3         HZ3         HX4     
           SZ2           0.0080052
           HX3          -0.0000000   0.0016245
           HY3           0.0080611  -0.0000000   0.2932856
           HZ3          -0.0059351  -0.0000000  -0.0445582   0.0435426
           HX4           0.0000000  -0.0001368   0.0000000   0.0000000   0.0517471
           HY4          -0.0000233   0.0000000   0.0013783  -0.0016667   0.0000000
           HZ4          -0.0017843   0.0000000  -0.0004815  -0.0091851  -0.0000000
           HX5           0.0004145  -0.0005181   0.0003080  -0.0006213   0.0020402
           HY5           0.0004996   0.0010169   0.0004408  -0.0000578  -0.0289395
           HZ5          -0.0041536   0.0003127   0.0003958   0.0023096   0.0109210
           HX6          -0.0004145  -0.0005181  -0.0003080   0.0006213   0.0020402
           HY6           0.0004996  -0.0010169   0.0004408  -0.0000578   0.0289395
           HZ6          -0.0041536  -0.0003127   0.0003958   0.0023096  -0.0109210
                             HY4         HZ4         HX5         HY5         HZ5     
           HY4           0.3433644
           HZ4          -0.0914983   0.0864099
           HX5           0.0008857   0.0014372   0.2716263
           HY5          -0.0133928  -0.0124060   0.1206245   0.1198813
           HZ5           0.0043217   0.0052611   0.0843584   0.0480309   0.0908141
           HX6          -0.0008857  -0.0014372  -0.0213615   0.0145099   0.0093275
           HY6          -0.0133928  -0.0124060  -0.0145099   0.0101255   0.0070285
           HZ6           0.0043217   0.0052611  -0.0093275   0.0070285   0.0059827
                             HX6         HY6         HZ6     
           HX6           0.2716263
           HY6          -0.1206245   0.1198813
           HZ6          -0.0843584   0.0480309   0.0908141


 Mass Weighted 2nd Derivative Matrix Eigenvalues
     1-  10    0.000000    0.000000    0.000000    0.000000    0.000000    0.000000    0.002543    0.022066    0.028005    0.042974
    11-  18    0.054540    0.084352    0.096174    0.097583    0.310425    0.386893    0.408046    0.408335

 Mass Weighted 2nd Derivative Matrix Eigenvectors
              1             2             3             4             5             6             7             8
    1    0.83342794    0.13235208   -0.00194231   -0.02078991    0.01512587   -0.04784981   -0.00736245    0.00000000
    2    0.03522453    0.02662485   -0.10009908   -0.28109390   -0.17756685    0.75723299    0.00000000   -0.02486183
    3    0.00591914   -0.07362527   -0.04515685   -0.06186644    0.48189728    0.08049639    0.00000000    0.74290874
    4    0.05725684    0.21829148   -0.10259573    0.88707035    0.08266624    0.32477492   -0.14963902    0.00000000
    5   -0.01933792    0.19647297    0.92000353   -0.02452381    0.08592150    0.20709364    0.00000000   -0.01010030
    6    0.01205467   -0.12494264   -0.10745057   -0.11450952    0.77488853    0.16343815    0.00000000   -0.56482845
    7   -0.10207546    0.58269920   -0.12993089   -0.01517050    0.07948240   -0.01990877    0.79091042    0.00000000
    8   -0.00512681    0.03825520    0.18722010    0.00521814    0.02353684    0.01409034    0.00000000    0.02547664
    9   -0.00770227   -0.00258172    0.11970607    0.03530359    0.18571231   -0.10278809    0.00000000    0.05984028
   10    0.35029073   -0.38997519    0.08895622    0.11552350   -0.04755063    0.04090970    0.37064940    0.00000000
   11    0.01274342    0.00266701   -0.06475723   -0.09579210   -0.06385810    0.25339886    0.00000000    0.01822867
   12    0.00942786   -0.03669601   -0.12183557   -0.06152329    0.10193685    0.12660941    0.00000000    0.28627947
   13    0.25875659    0.23620703   -0.03678753   -0.10990573    0.02538379   -0.06005082   -0.14666461    0.00160845
   14    0.06920562   -0.36379262    0.00508456    0.03248860   -0.10793077    0.31521039    0.29036120    0.04948621
   15   -0.11663233   -0.00239934    0.02801361    0.07867693    0.16404832    0.00702909   -0.03868728    0.13585694
   16    0.25875659    0.23620703   -0.03678753   -0.10990573    0.02538379   -0.06005082   -0.14666461   -0.00160845
   17   -0.04317366    0.36804105   -0.14228540   -0.22715405   -0.02245136    0.19888726   -0.29036120    0.04948621
   18    0.11268603   -0.02558296    0.04983272   -0.07283670    0.15133938   -0.05916261    0.03868728    0.13585694
              9            10            11            12            13            14            15            16
    1    0.00000000    0.37443095    0.00000000    0.00000000   -0.21251534    0.00000000    0.00000000    0.00000000
    2   -0.12044781    0.00000000    0.38796238    0.00210265    0.00000000   -0.20493118    0.00514153    0.00215766
    3   -0.17095362    0.00000000   -0.01042409   -0.37995071    0.00000000   -0.03035208   -0.00136571    0.15308821
    4    0.00000000   -0.12912299    0.00000000    0.00000000   -0.01651030    0.00000000    0.00000000    0.00000000
    5   -0.03083823    0.00000000   -0.17953732    0.01036059    0.00000000   -0.02419623   -0.17251376   -0.00095596
    6   -0.01039056    0.00000000   -0.10884905   -0.02334191    0.00000000   -0.00540435    0.02928850   -0.00041921
    7    0.00000000    0.02427854    0.00000000    0.00000000   -0.00935411    0.00000000    0.00000000    0.00000000
    8    0.11920306    0.00000000    0.07311216   -0.00684336    0.00000000    0.00219055    0.97064946    0.00121486
    9    0.74183115    0.00000000    0.59578912   -0.04153912    0.00000000    0.04189378   -0.16404459    0.00031469
   10    0.00000000   -0.22950234    0.00000000    0.00000000    0.71392374    0.00000000    0.00000000    0.00000000
   11    0.12615560    0.00000000   -0.04768063    0.19585207    0.00000000   -0.13870497   -0.01301491    0.52840482
   12    0.42448564    0.00000000   -0.48186579    0.53049836    0.00000000   -0.30469341    0.00634272   -0.16126233
   13   -0.02570584   -0.17976332    0.05029810   -0.15223220    0.06086703   -0.37636398   -0.00557377   -0.48135548
   14    0.17197742    0.07371966   -0.17646034   -0.12730953   -0.38346728    0.48996909   -0.00185551   -0.26584029
   15   -0.25894793    0.59764917    0.26756338    0.47678992    0.26766222    0.19898639   -0.00127493   -0.18247076
   16    0.02570584   -0.17976332   -0.05029810    0.15223220    0.06086703    0.37636398    0.00557377    0.48135548
   17    0.17197742   -0.07371966   -0.17646034   -0.12730953    0.38346728    0.48996909   -0.00185551   -0.26584029
   18   -0.25894793   -0.59764917    0.26756338    0.47678992   -0.26766222    0.19898639   -0.00127493   -0.18247076
             17            18
    1    0.00000000   -0.31545348
    2   -0.31050293    0.00000000
    3   -0.00204362    0.00000000
    4    0.00000000    0.00107996
    5   -0.00220193    0.00000000
    6    0.00154874    0.00000000
    7    0.00000000    0.00008570
    8    0.01618173    0.00000000
    9   -0.00730550    0.00000000
   10    0.00000000   -0.01681589
   11    0.75011527    0.00000000
   12   -0.24261789    0.00000000
   13    0.31661976    0.54957991
   14    0.15876751    0.31410782
   15    0.12412604    0.22226285
   16   -0.31661976    0.54957991
   17    0.15876751   -0.31410782
   18    0.12412604   -0.22226285

   Low Vibration      Wavenumber
        Nr             [1/cm] 
        1                0.00
        2                0.00
        3                0.00
        4                0.00
        5                0.00
        6                0.00

     Vibration        Wavenumber
        Nr             [1/cm] 
        1              259.22
        2              763.60
        3              860.24
        4             1065.63
        5             1200.50
        6             1492.98
        7             1594.17
        8             1605.80
        9             2864.06
       10             3197.42
       11             3283.67
       12             3284.83

 FREQUENCIES * CALCULATION OF NORMAL MODES FOR HF-SCF


 Atomic Coordinates

  Nr  Atom  Charge       X              Y              Z

   1   C     6.00    0.000000000    0.023239290    2.325774228
   2   S    16.00    0.000000000   -0.083740583   -1.109158268
   3   H     1.00    0.000000000    2.394606752   -1.535573653
   4   H     1.00    0.000000000   -1.918764958    2.964155289
   5   H     1.00    1.676301288    0.952012022    3.032785834
   6   H     1.00   -1.676301288    0.952012022    3.032785834

 Gradient norm at reference geometry: 0.29873D-03

 Normal Modes

                              1 A``       2 A`        3 A`        4 A``       5 A` 
 Wavenumbers [cm-1]          259.22      763.60      860.24     1065.63     1200.50
 Intensities [km/mol]          0.00        0.00        0.00        0.00        0.00
 Intensities [relative]        0.00        0.00        0.00        0.00        0.00
           CX1             -0.00213    -0.00000     0.00000     0.10809     0.00000
           CY1             -0.00000    -0.00718    -0.03477    -0.00000     0.11200
           CZ1              0.00000     0.21446    -0.04935     0.00000    -0.00301
           SX2             -0.02646     0.00000    -0.00000    -0.02284    -0.00000
           SY2              0.00000    -0.00179    -0.00545     0.00000    -0.03175
           SZ2              0.00000    -0.09989    -0.00184     0.00000    -0.01925
           HX3              0.78783     0.00000     0.00000     0.02418    -0.00000
           HY3              0.00000     0.02538     0.11874    -0.00000     0.07283
           HZ3              0.00000     0.05961     0.73895    -0.00000     0.59347
           HX4              0.36921    -0.00000    -0.00000    -0.22861    -0.00000
           HY4             -0.00000     0.01816     0.12566    -0.00000    -0.04750
           HZ4             -0.00000     0.28517     0.42283     0.00000    -0.47999
           HX5             -0.14609     0.00160    -0.02561    -0.17906     0.05010
           HY5              0.28923     0.04929     0.17131     0.07343    -0.17577
           HZ5             -0.03854     0.13533    -0.25794     0.59532     0.26652
           HX6             -0.14609    -0.00160     0.02561    -0.17906    -0.05010
           HY6             -0.28923     0.04929     0.17131    -0.07343    -0.17577
           HZ6              0.03854     0.13533    -0.25794    -0.59532     0.26652

                              6 A`        7 A``       8 A`        9 A`       10 A` 
 Wavenumbers [cm-1]         1492.98     1594.17     1605.80     2864.06     3197.42
 Intensities [km/mol]          0.00        0.00        0.00        0.00        0.00
 Intensities [relative]        0.00        0.00        0.00        0.00        0.00
           CX1              0.00000    -0.06135    -0.00000    -0.00000     0.00000
           CY1              0.00061     0.00000    -0.05916     0.00148     0.00062
           CZ1             -0.10968     0.00000    -0.00876    -0.00039     0.04419
           SX2             -0.00000    -0.00292    -0.00000     0.00000     0.00000
           SY2              0.00183     0.00000    -0.00428    -0.03051    -0.00017
           SZ2             -0.00413     0.00000    -0.00096     0.00518    -0.00007
           HX3             -0.00000    -0.00932     0.00000    -0.00000    -0.00000
           HY3             -0.00682    -0.00000     0.00218     0.96687     0.00121
           HZ3             -0.04138    -0.00000     0.04173    -0.16341     0.00031
           HX4             -0.00000     0.71115     0.00000     0.00000    -0.00000
           HY4              0.19509     0.00000    -0.13817    -0.01296     0.52635
           HZ4              0.52843     0.00000    -0.30351     0.00632    -0.16064
           HX5             -0.15164     0.06063    -0.37490    -0.00555    -0.47948
           HY5             -0.12681    -0.38198     0.48806    -0.00185    -0.26481
           HZ5              0.47494     0.26662     0.19821    -0.00127    -0.18176
           HX6              0.15164     0.06063     0.37490     0.00555     0.47948
           HY6             -0.12681     0.38198     0.48806    -0.00185    -0.26481
           HZ6              0.47494    -0.26662     0.19821    -0.00127    -0.18176

                             11 A`       12 A``
 Wavenumbers [cm-1]         3283.67     3284.83
 Intensities [km/mol]          0.00        0.00
 Intensities [relative]        0.00        0.00
           CX1             -0.00000    -0.09106
           CY1             -0.08963     0.00000
           CZ1             -0.00059     0.00000
           SX2              0.00000     0.00019
           SY2             -0.00039     0.00000
           SZ2              0.00027    -0.00000
           HX3              0.00000     0.00009
           HY3              0.01612    -0.00000
           HZ3             -0.00728     0.00000
           HX4             -0.00000    -0.01675
           HY4              0.74720    -0.00000
           HZ4             -0.24167     0.00000
           HX5              0.31539     0.54744
           HY5              0.15815     0.31289
           HZ5              0.12364     0.22140
           HX6             -0.31539     0.54744
           HY6              0.15815    -0.31289
           HZ6              0.12364    -0.22140


 Normal Modes of low/zero frequencies

                                  1           2           3           4           5
 Wavenumbers [cm-1]            0.00        0.00        0.00        0.00        0.00
 Intensities [km/mol]          0.00        0.00        0.00        0.00        0.00
 Intensities [relative]        0.00        0.00        0.00        0.00        0.00
           CX1              0.24059     0.03821    -0.00056    -0.00600     0.00437
           CY1              0.01017     0.00769    -0.02890    -0.08114    -0.05126
           CZ1              0.00171    -0.02125    -0.01304    -0.01786     0.13911
           SX2              0.01013     0.03861    -0.01814     0.15688     0.01462
           SY2             -0.00342     0.03475     0.16271    -0.00434     0.01520
           SZ2              0.00213    -0.02210    -0.01900    -0.02025     0.13704
           HX3             -0.10168     0.58043    -0.12943    -0.01511     0.07917
           HY3             -0.00511     0.03811     0.18649     0.00520     0.02345
           HZ3             -0.00767    -0.00257     0.11924     0.03517     0.18499
           HX4              0.34893    -0.38846     0.08861     0.11507    -0.04737
           HY4              0.01269     0.00266    -0.06451    -0.09542    -0.06361
           HZ4              0.00939    -0.03655    -0.12136    -0.06128     0.10154
           HX5              0.25775     0.23529    -0.03664    -0.10948     0.02529
           HY5              0.06894    -0.36238     0.00506     0.03236    -0.10751
           HZ5             -0.11618    -0.00239     0.02790     0.07837     0.16341
           HX6              0.25775     0.23529    -0.03664    -0.10948     0.02529
           HY6             -0.04301     0.36661    -0.14173    -0.22627    -0.02236
           HZ6              0.11225    -0.02548     0.04964    -0.07255     0.15075

                                  6
 Wavenumbers [cm-1]            0.00
 Intensities [km/mol]          0.00
 Intensities [relative]        0.00
           CX1             -0.01381
           CY1              0.21859
           CZ1              0.02324
           SX2              0.05744
           SY2              0.03663
           SZ2              0.02890
           HX3             -0.01983
           HY3              0.01404
           HZ3             -0.10239
           HX4              0.04075
           HY4              0.25241
           HZ4              0.12612
           HX5             -0.05982
           HY5              0.31398
           HZ5              0.00700
           HX6             -0.05982
           HY6              0.19811
           HZ6             -0.05893


 Frequencies dumped to record   5400.2
 Frequency information read from record  5400.2

 Zero point energy:  0.04891709 [H]    10736.06 [1/CM]      128.43 [KJ/MOL]


 **********************************************************************************************************************************
 DATASETS  * FILE   NREC   LENGTH (MB)   RECORD NAMES
              1      19       34.29       500      610      700      900      950      970     1000      129      960     1100   
                                          VAR    BASINP    GEOM    SYMINP    ZMAT    AOBASIS   BASIS     P2S    ABASIS      S 
                                         1400     1410     1200     1210     1080     1600     1650     1300     1700   
                                           T        V       H0       H01     AOSYM     SMH    MOLCAS    ERIS     OPER   

              2       7        0.55       700     1000      520     2100     5300     5450     5400   
                                         GEOM     BASIS   MCVARS     RHF     HESS     NMOD     FREQ   

              4       5        0.65      4100     4000     4200     4300     4400   

 PROGRAMS   *        TOTAL      FREQ      OPTG    HF-SCF       INT
 CPU TIMES  *         8.60      4.68      3.41      0.10      0.31
 REAL TIME  *         9.09 SEC
 DISK USED  *        52.97 MB
 **********************************************************************************************************************************

 Dump information in style MOLDEN to ch3sh.molden                                                                    

 Molecular orbitals read from record     2100.2  Type=RHF/CANONICAL  
 Occupation numbers read from record     2100.2  Type=RHF/RHF  
 Orbital energies read from record       2100.2  Type=RHF/CANONICAL  
 Redundancy group numbers read from rec  2100.2  Type=RHF/RHF  

 DUMP ORBITAL  1.1 AS ORBITAL    1  occ=    2.0000  eig=  -91.9529  GROUP=   2
 DUMP ORBITAL  2.1 AS ORBITAL    2  occ=    2.0000  eig=  -11.2586  GROUP=   2
 DUMP ORBITAL  3.1 AS ORBITAL    3  occ=    2.0000  eig=   -8.9556  GROUP=   2
 DUMP ORBITAL  4.1 AS ORBITAL    4  occ=    2.0000  eig=   -6.6380  GROUP=   2
 DUMP ORBITAL  5.1 AS ORBITAL    5  occ=    2.0000  eig=   -6.6369  GROUP=   2
 DUMP ORBITAL  1.2 AS ORBITAL    6  occ=    2.0000  eig=   -6.6352  GROUP=   2
 DUMP ORBITAL  6.1 AS ORBITAL    7  occ=    2.0000  eig=   -1.0417  GROUP=   2
 DUMP ORBITAL  7.1 AS ORBITAL    8  occ=    2.0000  eig=   -0.8726  GROUP=   2
 DUMP ORBITAL  8.1 AS ORBITAL    9  occ=    2.0000  eig=   -0.6121  GROUP=   2
 DUMP ORBITAL  2.2 AS ORBITAL   10  occ=    2.0000  eig=   -0.5966  GROUP=   2
 DUMP ORBITAL  9.1 AS ORBITAL   11  occ=    2.0000  eig=   -0.5344  GROUP=   2
 DUMP ORBITAL 10.1 AS ORBITAL   12  occ=    2.0000  eig=   -0.4588  GROUP=   2
 DUMP ORBITAL  3.2 AS ORBITAL   13  occ=    2.0000  eig=   -0.3573  GROUP=   2

 Total charge:      26.000000
 Frequency information read from record  5400.2

 **********************************************************************************************************************************

 HF/6-311G(D,P)//HF/6-311G(D,P) energy=   -437.740240067507

    OPTG(HF-SCF)          HF-SCF
   -437.74024007   -437.73996401
 **********************************************************************************************************************************
 Molpro calculation terminated
