 Entering Gaussian System, Link 0=g16
 Input=carbonic_acid_input.gjf
 Output=carbonic_acid_input.log
 Initial command:
 /usr/local/g16/l1.exe "/scratch/lme/Gau-3194156.inp" -scrdir="/scratch/lme/"
 Entering Link 1 = /usr/local/g16/l1.exe PID=   3194158.
  
 Copyright (c) 1988,1990,1992,1993,1995,1998,2003,2009,2016,
            Gaussian, Inc.  All Rights Reserved.
  
 This is part of the Gaussian(R) 16 program.  It is based on
 the Gaussian(R) 09 system (copyright 2009, Gaussian, Inc.),
 the Gaussian(R) 03 system (copyright 2003, Gaussian, Inc.),
 the Gaussian(R) 98 system (copyright 1998, Gaussian, Inc.),
 the Gaussian(R) 94 system (copyright 1995, Gaussian, Inc.),
 the Gaussian 92(TM) system (copyright 1992, Gaussian, Inc.),
 the Gaussian 90(TM) system (copyright 1990, Gaussian, Inc.),
 the Gaussian 88(TM) system (copyright 1988, Gaussian, Inc.),
 the Gaussian 86(TM) system (copyright 1986, Carnegie Mellon
 University), and the Gaussian 82(TM) system (copyright 1983,
 Carnegie Mellon University). Gaussian is a federally registered
 trademark of Gaussian, Inc.
  
 This software contains proprietary and confidential information,
 including trade secrets, belonging to Gaussian, Inc.
  
 This software is provided under written license and may be
 used, copied, transmitted, or stored only in accord with that
 written license.
  
 The following legend is applicable only to US Government
 contracts under FAR:
  
                    RESTRICTED RIGHTS LEGEND
  
 Use, reproduction and disclosure by the US Government is
 subject to restrictions as set forth in subparagraphs (a)
 and (c) of the Commercial Computer Software - Restricted
 Rights clause in FAR 52.227-19.
  
 Gaussian, Inc.
 340 Quinnipiac St., Bldg. 40, Wallingford CT 06492
  
  
 ---------------------------------------------------------------
 Warning -- This program may not be used in any manner that
 competes with the business of Gaussian, Inc. or will provide
 assistance to any competitor of Gaussian, Inc.  The licensee
 of this program is prohibited from giving any competitor of
 Gaussian, Inc. access to this program.  By using this program,
 the user acknowledges that Gaussian, Inc. is engaged in the
 business of creating and licensing software in the field of
 computational chemistry and represents and warrants to the
 licensee that it is not a competitor of Gaussian, Inc. and that
 it will not use this program in any manner prohibited above.
 ---------------------------------------------------------------
  

 Cite this work as:
 Gaussian 16, Revision A.03,
 M. J. Frisch, G. W. Trucks, H. B. Schlegel, G. E. Scuseria, 
 M. A. Robb, J. R. Cheeseman, G. Scalmani, V. Barone, 
 G. A. Petersson, H. Nakatsuji, X. Li, M. Caricato, A. V. Marenich, 
 J. Bloino, B. G. Janesko, R. Gomperts, B. Mennucci, H. P. Hratchian, 
 J. V. Ortiz, A. F. Izmaylov, J. L. Sonnenberg, D. Williams-Young, 
 F. Ding, F. Lipparini, F. Egidi, J. Goings, B. Peng, A. Petrone, 
 T. Henderson, D. Ranasinghe, V. G. Zakrzewski, J. Gao, N. Rega, 
 G. Zheng, W. Liang, M. Hada, M. Ehara, K. Toyota, R. Fukuda, 
 J. Hasegawa, M. Ishida, T. Nakajima, Y. Honda, O. Kitao, H. Nakai, 
 T. Vreven, K. Throssell, J. A. Montgomery, Jr., J. E. Peralta, 
 F. Ogliaro, M. J. Bearpark, J. J. Heyd, E. N. Brothers, K. N. Kudin, 
 V. N. Staroverov, T. A. Keith, R. Kobayashi, J. Normand, 
 K. Raghavachari, A. P. Rendell, J. C. Burant, S. S. Iyengar, 
 J. Tomasi, M. Cossi, J. M. Millam, M. Klene, C. Adamo, R. Cammi, 
 J. W. Ochterski, R. L. Martin, K. Morokuma, O. Farkas, 
 J. B. Foresman, and D. J. Fox, Gaussian, Inc., Wallingford CT, 2016.
 
 ******************************************
 Gaussian 16:  ES64L-G16RevA.03 25-Dec-2016
                25-Sep-2024 
 ******************************************
 %chk=carbonic_acid_input.chk
 --------------------------------------------
 #p opt freq hf/6-311g(d,p) geom=connectivity
 --------------------------------------------
 1/18=20,19=15,38=1,57=2/1,3;
 2/9=110,12=2,17=6,18=5,40=1/2;
 3/5=4,6=6,7=101,11=9,25=1,30=1,71=1/1,2,3;
 4//1;
 5/5=2,38=5/2;
 6/7=2,8=2,9=2,10=2,28=1/1;
 7//1,2,3,16;
 1/18=20,19=15/3(2);
 2/9=110/2;
 99//99;
 2/9=110/2;
 3/5=4,6=6,7=101,11=9,25=1,30=1,71=1/1,2,3;
 4/5=5,16=3,69=1/1;
 5/5=2,38=5/2;
 7//1,2,3,16;
 1/18=20,19=15/3(-5);
 2/9=110/2;
 6/7=2,8=2,9=2,10=2,19=2,28=1/1;
 99/9=1/99;
 Leave Link    1 at Wed Sep 25 09:48:36 2024, MaxMem=           0 cpu:               0.0 elap:               0.0
 (Enter /usr/local/g16/l101.exe)
 -------------------
 Title Card Required
 -------------------
 Symbolic Z-matrix:
 Charge =  0 Multiplicity = 1
 C                    -0.59062   0.39805  -0.96274 
 O                    -0.37843   1.62996  -0.81795 
 O                     0.38721  -0.55554  -0.53917 
 H                     1.14347  -0.09556  -0.16757 
 O                    -1.81377  -0.04978  -1.55288 
 H                    -1.77042   0.06348  -2.50519 
 C                     3.23236   2.92225   0.39561 
 O                     2.92868   1.40943  -0.00238 
 O                     1.90951   2.98779   0.93476 
 H                     1.16671   2.96081   0.44652 
 O                     4.14826   3.5402    1.30344 
 H                     4.65118   4.21496   0.84152 
 
 Add virtual bond connecting atoms O8         and H4         Dist= 4.42D+00.
 Add virtual bond connecting atoms H10        and O2         Dist= 4.53D+00.
 ITRead=  0  0  0  0  0  0  0  0  0  0  0  0
 MicOpt= -1 -1 -1 -1 -1 -1 -1 -1 -1 -1 -1 -1
 NAtoms=     12 NQM=       12 NQMF=       0 NMMI=      0 NMMIF=      0
                NMic=       0 NMicF=      0.
                    Isotopes and Nuclear Properties:
 (Nuclear quadrupole moments (NQMom) in fm**2, nuclear magnetic moments (NMagM)
  in nuclear magnetons)

  Atom         1           2           3           4           5           6           7           8           9          10
 IAtWgt=          12          16          16           1          16           1          12          16          16           1
 AtmWgt=  12.0000000  15.9949146  15.9949146   1.0078250  15.9949146   1.0078250  12.0000000  15.9949146  15.9949146   1.0078250
 NucSpn=           0           0           0           1           0           1           0           0           0           1
 AtZEff=  -0.0000000  -0.0000000  -0.0000000  -0.0000000  -0.0000000  -0.0000000  -0.0000000  -0.0000000  -0.0000000  -0.0000000
 NQMom=    0.0000000   0.0000000   0.0000000   0.0000000   0.0000000   0.0000000   0.0000000   0.0000000   0.0000000   0.0000000
 NMagM=    0.0000000   0.0000000   0.0000000   2.7928460   0.0000000   2.7928460   0.0000000   0.0000000   0.0000000   2.7928460
 AtZNuc=   6.0000000   8.0000000   8.0000000   1.0000000   8.0000000   1.0000000   6.0000000   8.0000000   8.0000000   1.0000000

  Atom        11          12
 IAtWgt=          16           1
 AtmWgt=  15.9949146   1.0078250
 NucSpn=           0           1
 AtZEff=  -0.0000000  -0.0000000
 NQMom=    0.0000000   0.0000000
 NMagM=    0.0000000   2.7928460
 AtZNuc=   8.0000000   1.0000000
 Leave Link  101 at Wed Sep 25 09:48:36 2024, MaxMem=   104857600 cpu:               0.1 elap:               0.1
 (Enter /usr/local/g16/l103.exe)

 GradGradGradGradGradGradGradGradGradGradGradGradGradGradGradGradGradGrad
 Berny optimization.
 Initialization pass.
                           ----------------------------
                           !    Initial Parameters    !
                           ! (Angstroms and Degrees)  !
 --------------------------                            --------------------------
 ! Name  Definition              Value          Derivative Info.                !
 --------------------------------------------------------------------------------
 ! R1    R(1,2)                  1.2584         estimate D2E/DX2                !
 ! R2    R(1,3)                  1.43           estimate D2E/DX2                !
 ! R3    R(1,5)                  1.43           estimate D2E/DX2                !
 ! R4    R(2,10)                 2.3995         estimate D2E/DX2                !
 ! R5    R(3,4)                  0.96           estimate D2E/DX2                !
 ! R6    R(4,8)                  2.3408         estimate D2E/DX2                !
 ! R7    R(5,6)                  0.96           estimate D2E/DX2                !
 ! R8    R(7,8)                  1.5935         estimate D2E/DX2                !
 ! R9    R(7,9)                  1.43           estimate D2E/DX2                !
 ! R10   R(7,11)                 1.43           estimate D2E/DX2                !
 ! R11   R(9,10)                 0.8893         estimate D2E/DX2                !
 ! R12   R(11,12)                0.96           estimate D2E/DX2                !
 ! A1    A(2,1,3)              120.2269         estimate D2E/DX2                !
 ! A2    A(2,1,5)              119.8865         estimate D2E/DX2                !
 ! A3    A(3,1,5)              119.8865         estimate D2E/DX2                !
 ! A4    A(1,2,10)             135.4124         estimate D2E/DX2                !
 ! A5    A(1,3,4)              109.5            estimate D2E/DX2                !
 ! A6    A(3,4,8)              159.4196         estimate D2E/DX2                !
 ! A7    A(1,5,6)              109.5            estimate D2E/DX2                !
 ! A8    A(8,7,9)               87.7868         estimate D2E/DX2                !
 ! A9    A(8,7,11)             133.6991         estimate D2E/DX2                !
 ! A10   A(9,7,11)             109.4712         estimate D2E/DX2                !
 ! A11   A(4,8,7)              140.6564         estimate D2E/DX2                !
 ! A12   A(7,9,10)             124.3523         estimate D2E/DX2                !
 ! A13   A(2,10,9)             147.566          estimate D2E/DX2                !
 ! A14   A(7,11,12)            109.5            estimate D2E/DX2                !
 ! D1    D(3,1,2,10)           -15.2893         estimate D2E/DX2                !
 ! D2    D(5,1,2,10)           164.7107         estimate D2E/DX2                !
 ! D3    D(2,1,3,4)              0.0            estimate D2E/DX2                !
 ! D4    D(5,1,3,4)            180.0            estimate D2E/DX2                !
 ! D5    D(2,1,5,6)             77.6147         estimate D2E/DX2                !
 ! D6    D(3,1,5,6)           -102.3853         estimate D2E/DX2                !
 ! D7    D(1,2,10,9)            12.641          estimate D2E/DX2                !
 ! D8    D(1,3,4,8)            -53.1231         estimate D2E/DX2                !
 ! D9    D(3,4,8,7)             84.2555         estimate D2E/DX2                !
 ! D10   D(9,7,8,4)             12.0366         estimate D2E/DX2                !
 ! D11   D(11,7,8,4)           127.1537         estimate D2E/DX2                !
 ! D12   D(8,7,9,10)           -68.4283         estimate D2E/DX2                !
 ! D13   D(11,7,9,10)          155.545          estimate D2E/DX2                !
 ! D14   D(8,7,11,12)          127.6547         estimate D2E/DX2                !
 ! D15   D(9,7,11,12)         -126.0136         estimate D2E/DX2                !
 ! D16   D(7,9,10,2)            76.326          estimate D2E/DX2                !
 --------------------------------------------------------------------------------
 Trust Radius=3.00D-01 FncErr=1.00D-07 GrdErr=1.00D-07 EigMax=2.50D+02 EigMin=1.00D-04
 Number of steps in this run=     52 maximum allowed number of steps=    100.
 GradGradGradGradGradGradGradGradGradGradGradGradGradGradGradGradGradGrad

 Leave Link  103 at Wed Sep 25 09:48:36 2024, MaxMem=   104857600 cpu:               0.0 elap:               0.0
 (Enter /usr/local/g16/l202.exe)
                          Input orientation:                          
 ---------------------------------------------------------------------
 Center     Atomic      Atomic             Coordinates (Angstroms)
 Number     Number       Type             X           Y           Z
 ---------------------------------------------------------------------
      1          6           0       -0.590617    0.398054   -0.962743
      2          8           0       -0.378427    1.629956   -0.817953
      3          8           0        0.387209   -0.555541   -0.539170
      4          1           0        1.143468   -0.095557   -0.167570
      5          8           0       -1.813765   -0.049776   -1.552875
      6          1           0       -1.770417    0.063477   -2.505185
      7          6           0        3.232356    2.922251    0.395607
      8          8           0        2.928676    1.409431   -0.002383
      9          8           0        1.909513    2.987787    0.934765
     10          1           0        1.166707    2.960806    0.446516
     11          8           0        4.148260    3.540198    1.303441
     12          1           0        4.651182    4.214959    0.841524
 ---------------------------------------------------------------------
                    Distance matrix (angstroms):
                    1          2          3          4          5
     1  C    0.000000
     2  O    1.258400   0.000000
     3  O    1.430000   2.332448   0.000000
     4  H    1.970533   2.390932   0.960000   0.000000
     5  O    1.430000   2.328477   2.475415   3.265944   0.000000
     6  H    1.970533   2.690399   2.983915   3.739046   0.960000
     7  C    4.778264   4.022500   4.589522   3.713191   6.171942
     8  O    3.785578   3.413315   3.257041   2.340779   5.198467
     9  O    4.069140   3.185968   4.128567   3.362882   5.410910
    10  H    3.412022   2.399475   3.734152   3.117530   4.684483
    11  O    6.120916   5.351657   5.857969   4.940785   7.522779
    12  H    6.730571   5.893476   6.545644   5.648263   8.106580
                    6          7          8          9         10
     6  H    0.000000
     7  C    6.450964   0.000000
     8  O    5.491548   1.593500   0.000000
     9  O    5.824666   1.430000   2.099558   0.000000
    10  H    5.072845   2.066636   2.390149   0.889312   0.000000
    11  O    7.850093   1.430000   2.780778   2.335180   3.155895
    12  H    8.346987   1.970533   3.398557   3.005227   3.724311
                   11         12
    11  O    0.000000
    12  H    0.960000   0.000000
 Stoichiometry    C2H4O6
 Framework group  C1[X(C2H4O6)]
 Deg. of freedom    30
 Full point group                 C1      NOp   1
 Largest Abelian subgroup         C1      NOp   1
 Largest concise Abelian subgroup C1      NOp   1
                         Standard orientation:                         
 ---------------------------------------------------------------------
 Center     Atomic      Atomic             Coordinates (Angstroms)
 Number     Number       Type             X           Y           Z
 ---------------------------------------------------------------------
      1          6           0       -2.292315   -0.058935   -0.026561
      2          8           0       -1.437159   -0.959649    0.175911
      3          8           0       -1.875370    1.268465   -0.356813
      4          1           0       -0.916480    1.305713   -0.384075
      5          8           0       -3.685809   -0.363843    0.073954
      6          1           0       -3.938339   -0.407657    0.999108
      7          6           0        2.469730   -0.021043    0.364983
      8          8           0        1.306448    1.066572    0.309212
      9          8           0        1.673865   -0.835711   -0.499781
     10          1           0        0.907526   -1.219610   -0.262668
     11          8           0        3.828325   -0.038265   -0.080913
     12          1           0        4.400408   -0.299138    0.644530
 ---------------------------------------------------------------------
 Rotational constants (GHZ):           5.8105881           0.6335596           0.5864917
 Leave Link  202 at Wed Sep 25 09:48:36 2024, MaxMem=   104857600 cpu:               0.0 elap:               0.0
 (Enter /usr/local/g16/l301.exe)
 Standard basis: 6-311G(d,p) (5D, 7F)
 Ernie: Thresh=  0.10000D-02 Tol=  0.10000D-05 Strict=F.
 There are   176 symmetry adapted cartesian basis functions of A   symmetry.
 There are   168 symmetry adapted basis functions of A   symmetry.
   168 basis functions,   288 primitive gaussians,   176 cartesian basis functions
    32 alpha electrons       32 beta electrons
       nuclear repulsion energy       349.6276800634 Hartrees.
 IExCor=    0 DFT=F Ex=HF Corr=None ExCW=0 ScaHFX=  1.000000
 ScaDFX=  1.000000  1.000000  1.000000  1.000000 ScalE2=  1.000000  1.000000
 IRadAn=      5 IRanWt=     -1 IRanGd=            0 ICorTp=0 IEmpDi=  4
 NAtoms=   12 NActive=   12 NUniq=   12 SFac= 1.00D+00 NAtFMM=   60 NAOKFM=F Big=F
 Integral buffers will be    131072 words long.
 Raffenetti 1 integral format.
 Two-electron integral symmetry is turned on.
 Leave Link  301 at Wed Sep 25 09:48:36 2024, MaxMem=   104857600 cpu:               0.0 elap:               0.0
 (Enter /usr/local/g16/l302.exe)
 NPDir=0 NMtPBC=     1 NCelOv=     1 NCel=       1 NClECP=     1 NCelD=      1
         NCelK=      1 NCelE2=     1 NClLst=     1 CellRange=     0.0.
 One-electron integrals computed using PRISM.
 One-electron integral symmetry used in STVInt
 NBasis=   168 RedAO= T EigKep=  9.61D-03  NBF=   168
 NBsUse=   168 1.00D-06 EigRej= -1.00D+00 NBFU=   168
 Leave Link  302 at Wed Sep 25 09:48:36 2024, MaxMem=   104857600 cpu:               0.1 elap:               0.1
 (Enter /usr/local/g16/l303.exe)
 DipDrv:  MaxL=1.
 Leave Link  303 at Wed Sep 25 09:48:36 2024, MaxMem=   104857600 cpu:               0.0 elap:               0.0
 (Enter /usr/local/g16/l401.exe)
 ExpMin= 1.03D-01 ExpMax= 8.59D+03 ExpMxC= 1.30D+03 IAcc=3 IRadAn=         5 AccDes= 0.00D+00
 Harris functional with IExCor=  205 and IRadAn=       5 diagonalized for initial guess.
 HarFok:  IExCor=  205 AccDes= 0.00D+00 IRadAn=         5 IDoV= 1 UseB2=F ITyADJ=14
 ICtDFT=  3500011 ScaDFX=  1.000000  1.000000  1.000000  1.000000
 FoFCou: FMM=F IPFlag=           0 FMFlag=      100000 FMFlg1=           0
         NFxFlg=           0 DoJE=T BraDBF=F KetDBF=T FulRan=T
         wScrn=  0.000000 ICntrl=       500 IOpCl=  0 I1Cent=   200000004 NGrid=           0
         NMat0=    1 NMatS0=      1 NMatT0=    0 NMatD0=    1 NMtDS0=    0 NMtDT0=    0
 Petite list used in FoFCou.
 Harris En= -527.493915104735    
 JPrj=0 DoOrth=F DoCkMO=F.
 Leave Link  401 at Wed Sep 25 09:48:37 2024, MaxMem=   104857600 cpu:               1.0 elap:               1.0
 (Enter /usr/local/g16/l502.exe)
 Keep R1 ints in memory in canonical form, NReq=103543833.
 FoFCou: FMM=F IPFlag=           0 FMFlag=           0 FMFlg1=           0
         NFxFlg=           0 DoJE=F BraDBF=F KetDBF=F FulRan=T
         wScrn=  0.000000 ICntrl=       600 IOpCl=  0 I1Cent=           0 NGrid=           0
         NMat0=    1 NMatS0=  14196 NMatT0=    0 NMatD0=    1 NMtDS0=    0 NMtDT0=    0
 Symmetry not used in FoFCou.
 Two-electron integral symmetry not used.
 Closed shell SCF:
 Using DIIS extrapolation, IDIIS=  1040.
 NGot=   104857600 LenX=     4022486 LenY=     3991069
 Requested convergence on RMS density matrix=1.00D-08 within 128 cycles.
 Requested convergence on MAX density matrix=1.00D-06.
 Requested convergence on             energy=1.00D-06.
 No special actions if energy rises.

 Cycle   1  Pass 1  IDiag  1:
 E= -526.659295083443    
 DIIS: error= 4.66D-02 at cycle   1 NSaved=   1.
 NSaved= 1 IEnMin= 1 EnMin= -526.659295083443     IErMin= 1 ErrMin= 4.66D-02
 ErrMax= 4.66D-02  0.00D+00 EMaxC= 1.00D-01 BMatC= 1.13D+00 BMatP= 1.13D+00
 IDIUse=3 WtCom= 5.34D-01 WtEn= 4.66D-01
 Coeff-Com:  0.100D+01
 Coeff-En:   0.100D+01
 Coeff:      0.100D+01
 Gap=     0.126 Goal=   None    Shift=    0.000
 GapD=    0.126 DampG=1.000 DampE=0.500 DampFc=0.5000 IDamp=-1.
 Damping current iteration by 5.00D-01
 RMSDP=4.07D-03 MaxDP=1.51D-01              OVMax= 3.06D-01

 Cycle   2  Pass 1  IDiag  1:
 E= -526.868963980690     Delta-E=       -0.209668897247 Rises=F Damp=T
 DIIS: error= 2.14D-02 at cycle   2 NSaved=   2.
 NSaved= 2 IEnMin= 2 EnMin= -526.868963980690     IErMin= 2 ErrMin= 2.14D-02
 ErrMax= 2.14D-02  0.00D+00 EMaxC= 1.00D-01 BMatC= 1.88D-01 BMatP= 1.13D+00
 IDIUse=3 WtCom= 7.86D-01 WtEn= 2.14D-01
 Coeff-Com: -0.260D+00 0.126D+01
 Coeff-En:   0.000D+00 0.100D+01
 Coeff:     -0.205D+00 0.120D+01
 Gap=     0.464 Goal=   None    Shift=    0.000
 RMSDP=1.24D-03 MaxDP=5.32D-02 DE=-2.10D-01 OVMax= 2.28D-01

 Cycle   3  Pass 1  IDiag  1:
 E= -527.077845269135     Delta-E=       -0.208881288445 Rises=F Damp=F
 DIIS: error= 1.70D-02 at cycle   3 NSaved=   3.
 NSaved= 3 IEnMin= 3 EnMin= -527.077845269135     IErMin= 3 ErrMin= 1.70D-02
 ErrMax= 1.70D-02  0.00D+00 EMaxC= 1.00D-01 BMatC= 5.08D-02 BMatP= 1.88D-01
 IDIUse=3 WtCom= 8.30D-01 WtEn= 1.70D-01
 Coeff-Com: -0.212D+00 0.470D+00 0.742D+00
 Coeff-En:   0.000D+00 0.000D+00 0.100D+01
 Coeff:     -0.176D+00 0.391D+00 0.786D+00
 Gap=     0.383 Goal=   None    Shift=    0.000
 RMSDP=9.89D-04 MaxDP=4.15D-02 DE=-2.09D-01 OVMax= 9.05D-02

 Cycle   4  Pass 1  IDiag  1:
 E= -527.116282125421     Delta-E=       -0.038436856286 Rises=F Damp=F
 DIIS: error= 8.95D-03 at cycle   4 NSaved=   4.
 NSaved= 4 IEnMin= 4 EnMin= -527.116282125421     IErMin= 4 ErrMin= 8.95D-03
 ErrMax= 8.95D-03  0.00D+00 EMaxC= 1.00D-01 BMatC= 7.96D-03 BMatP= 5.08D-02
 IDIUse=3 WtCom= 9.10D-01 WtEn= 8.95D-02
 Coeff-Com: -0.564D-01 0.784D-01 0.344D+00 0.634D+00
 Coeff-En:   0.000D+00 0.000D+00 0.000D+00 0.100D+01
 Coeff:     -0.513D-01 0.714D-01 0.313D+00 0.667D+00
 Gap=     0.413 Goal=   None    Shift=    0.000
 RMSDP=3.23D-04 MaxDP=1.39D-02 DE=-3.84D-02 OVMax= 3.21D-02

 Cycle   5  Pass 1  IDiag  1:
 E= -527.123097914373     Delta-E=       -0.006815788953 Rises=F Damp=F
 DIIS: error= 1.83D-03 at cycle   5 NSaved=   5.
 NSaved= 5 IEnMin= 5 EnMin= -527.123097914373     IErMin= 5 ErrMin= 1.83D-03
 ErrMax= 1.83D-03  0.00D+00 EMaxC= 1.00D-01 BMatC= 4.19D-04 BMatP= 7.96D-03
 IDIUse=3 WtCom= 9.82D-01 WtEn= 1.83D-02
 Coeff-Com:  0.271D-01-0.481D-01-0.143D+00-0.834D-01 0.125D+01
 Coeff-En:   0.000D+00 0.000D+00 0.000D+00 0.000D+00 0.100D+01
 Coeff:      0.266D-01-0.473D-01-0.141D+00-0.819D-01 0.124D+01
 Gap=     0.420 Goal=   None    Shift=    0.000
 RMSDP=2.09D-04 MaxDP=5.69D-03 DE=-6.82D-03 OVMax= 2.30D-02

 Cycle   6  Pass 1  IDiag  1:
 E= -527.124781555712     Delta-E=       -0.001683641338 Rises=F Damp=F
 DIIS: error= 1.08D-03 at cycle   6 NSaved=   6.
 NSaved= 6 IEnMin= 6 EnMin= -527.124781555712     IErMin= 6 ErrMin= 1.08D-03
 ErrMax= 1.08D-03  0.00D+00 EMaxC= 1.00D-01 BMatC= 1.32D-04 BMatP= 4.19D-04
 IDIUse=3 WtCom= 9.89D-01 WtEn= 1.08D-02
 Coeff-Com:  0.146D-01-0.216D-01-0.838D-01-0.155D+00 0.185D+00 0.106D+01
 Coeff-En:   0.000D+00 0.000D+00 0.000D+00 0.000D+00 0.000D+00 0.100D+01
 Coeff:      0.144D-01-0.214D-01-0.828D-01-0.153D+00 0.183D+00 0.106D+01
 Gap=     0.426 Goal=   None    Shift=    0.000
 RMSDP=1.37D-04 MaxDP=3.20D-03 DE=-1.68D-03 OVMax= 1.56D-02

 Cycle   7  Pass 1  IDiag  1:
 E= -527.125455762664     Delta-E=       -0.000674206952 Rises=F Damp=F
 DIIS: error= 6.42D-04 at cycle   7 NSaved=   7.
 NSaved= 7 IEnMin= 7 EnMin= -527.125455762664     IErMin= 7 ErrMin= 6.42D-04
 ErrMax= 6.42D-04  0.00D+00 EMaxC= 1.00D-01 BMatC= 4.68D-05 BMatP= 1.32D-04
 IDIUse=3 WtCom= 9.94D-01 WtEn= 6.42D-03
 Coeff-Com: -0.107D-01 0.187D-01 0.626D-01 0.360D-01-0.461D+00-0.414D-01
 Coeff-Com:  0.140D+01
 Coeff-En:   0.000D+00 0.000D+00 0.000D+00 0.000D+00 0.000D+00 0.000D+00
 Coeff-En:   0.100D+01
 Coeff:     -0.106D-01 0.185D-01 0.622D-01 0.358D-01-0.458D+00-0.412D-01
 Coeff:      0.139D+01
 Gap=     0.430 Goal=   None    Shift=    0.000
 RMSDP=1.25D-04 MaxDP=2.91D-03 DE=-6.74D-04 OVMax= 1.51D-02

 Cycle   8  Pass 1  IDiag  1:
 E= -527.125792320470     Delta-E=       -0.000336557806 Rises=F Damp=F
 DIIS: error= 3.05D-04 at cycle   8 NSaved=   8.
 NSaved= 8 IEnMin= 8 EnMin= -527.125792320470     IErMin= 8 ErrMin= 3.05D-04
 ErrMax= 3.05D-04  0.00D+00 EMaxC= 1.00D-01 BMatC= 1.14D-05 BMatP= 4.68D-05
 IDIUse=3 WtCom= 9.97D-01 WtEn= 3.05D-03
 Coeff-Com: -0.727D-02 0.116D-01 0.418D-01 0.630D-01-0.142D+00-0.371D+00
 Coeff-Com:  0.244D+00 0.116D+01
 Coeff-En:   0.000D+00 0.000D+00 0.000D+00 0.000D+00 0.000D+00 0.000D+00
 Coeff-En:   0.000D+00 0.100D+01
 Coeff:     -0.724D-02 0.115D-01 0.417D-01 0.628D-01-0.141D+00-0.370D+00
 Coeff:      0.243D+00 0.116D+01
 Gap=     0.432 Goal=   None    Shift=    0.000
 RMSDP=6.93D-05 MaxDP=1.60D-03 DE=-3.37D-04 OVMax= 8.64D-03

 Cycle   9  Pass 1  IDiag  1:
 E= -527.125873567040     Delta-E=       -0.000081246569 Rises=F Damp=F
 DIIS: error= 1.26D-04 at cycle   9 NSaved=   9.
 NSaved= 9 IEnMin= 9 EnMin= -527.125873567040     IErMin= 9 ErrMin= 1.26D-04
 ErrMax= 1.26D-04  0.00D+00 EMaxC= 1.00D-01 BMatC= 1.81D-06 BMatP= 1.14D-05
 IDIUse=3 WtCom= 9.99D-01 WtEn= 1.26D-03
 Coeff-Com:  0.212D-02-0.360D-02-0.145D-01-0.103D-01 0.958D-01 0.300D-01
 Coeff-Com: -0.263D+00-0.111D+00 0.127D+01
 Coeff-En:   0.000D+00 0.000D+00 0.000D+00 0.000D+00 0.000D+00 0.000D+00
 Coeff-En:   0.000D+00 0.000D+00 0.100D+01
 Coeff:      0.212D-02-0.360D-02-0.145D-01-0.103D-01 0.957D-01 0.300D-01
 Coeff:     -0.262D+00-0.111D+00 0.127D+01
 Gap=     0.432 Goal=   None    Shift=    0.000
 RMSDP=2.62D-05 MaxDP=5.39D-04 DE=-8.12D-05 OVMax= 3.00D-03

 Cycle  10  Pass 1  IDiag  1:
 E= -527.125887577676     Delta-E=       -0.000014010636 Rises=F Damp=F
 DIIS: error= 8.26D-05 at cycle  10 NSaved=  10.
 NSaved=10 IEnMin=10 EnMin= -527.125887577676     IErMin=10 ErrMin= 8.26D-05
 ErrMax= 8.26D-05  0.00D+00 EMaxC= 1.00D-01 BMatC= 5.73D-07 BMatP= 1.81D-06
 IDIUse=1 WtCom= 1.00D+00 WtEn= 0.00D+00
 Coeff-Com:  0.777D-03-0.121D-02-0.502D-02-0.726D-02 0.173D-01 0.421D-01
 Coeff-Com: -0.165D-01-0.163D+00-0.544D-01 0.119D+01
 Coeff:      0.777D-03-0.121D-02-0.502D-02-0.726D-02 0.173D-01 0.421D-01
 Coeff:     -0.165D-01-0.163D+00-0.544D-01 0.119D+01
 Gap=     0.432 Goal=   None    Shift=    0.000
 RMSDP=1.22D-05 MaxDP=3.06D-04 DE=-1.40D-05 OVMax= 1.68D-03

 Cycle  11  Pass 1  IDiag  1:
 E= -527.125891827262     Delta-E=       -0.000004249586 Rises=F Damp=F
 DIIS: error= 5.99D-05 at cycle  11 NSaved=  11.
 NSaved=11 IEnMin=11 EnMin= -527.125891827262     IErMin=11 ErrMin= 5.99D-05
 ErrMax= 5.99D-05  0.00D+00 EMaxC= 1.00D-01 BMatC= 2.95D-07 BMatP= 5.73D-07
 IDIUse=1 WtCom= 1.00D+00 WtEn= 0.00D+00
 Coeff-Com: -0.969D-03 0.167D-02 0.584D-02 0.558D-02-0.395D-01-0.141D-01
 Coeff-Com:  0.106D+00 0.293D-01-0.501D+00 0.541D-01 0.135D+01
 Coeff:     -0.969D-03 0.167D-02 0.584D-02 0.558D-02-0.395D-01-0.141D-01
 Coeff:      0.106D+00 0.293D-01-0.501D+00 0.541D-01 0.135D+01
 Gap=     0.432 Goal=   None    Shift=    0.000
 RMSDP=1.25D-05 MaxDP=3.54D-04 DE=-4.25D-06 OVMax= 1.85D-03

 Cycle  12  Pass 1  IDiag  1:
 E= -527.125894814898     Delta-E=       -0.000002987635 Rises=F Damp=F
 DIIS: error= 3.66D-05 at cycle  12 NSaved=  12.
 NSaved=12 IEnMin=12 EnMin= -527.125894814898     IErMin=12 ErrMin= 3.66D-05
 ErrMax= 3.66D-05  0.00D+00 EMaxC= 1.00D-01 BMatC= 1.50D-07 BMatP= 2.95D-07
 IDIUse=1 WtCom= 1.00D+00 WtEn= 0.00D+00
 Coeff-Com:  0.331D-03-0.573D-03-0.295D-02-0.372D-04 0.199D-01 0.253D-02
 Coeff-Com: -0.779D-01 0.294D-01 0.462D+00-0.690D+00-0.998D+00 0.225D+01
 Coeff:      0.331D-03-0.573D-03-0.295D-02-0.372D-04 0.199D-01 0.253D-02
 Coeff:     -0.779D-01 0.294D-01 0.462D+00-0.690D+00-0.998D+00 0.225D+01
 Gap=     0.432 Goal=   None    Shift=    0.000
 RMSDP=1.43D-05 MaxDP=4.21D-04 DE=-2.99D-06 OVMax= 2.13D-03

 Cycle  13  Pass 1  IDiag  1:
 E= -527.125896878872     Delta-E=       -0.000002063974 Rises=F Damp=F
 DIIS: error= 1.85D-05 at cycle  13 NSaved=  13.
 NSaved=13 IEnMin=13 EnMin= -527.125896878872     IErMin=13 ErrMin= 1.85D-05
 ErrMax= 1.85D-05  0.00D+00 EMaxC= 1.00D-01 BMatC= 3.57D-08 BMatP= 1.50D-07
 IDIUse=1 WtCom= 1.00D+00 WtEn= 0.00D+00
 Coeff-Com: -0.263D-05 0.104D-04 0.203D-03-0.119D-02-0.209D-02 0.563D-02
 Coeff-Com:  0.126D-01-0.290D-01-0.121D+00 0.450D+00 0.130D+00-0.150D+01
 Coeff-Com:  0.205D+01
 Coeff:     -0.263D-05 0.104D-04 0.203D-03-0.119D-02-0.209D-02 0.563D-02
 Coeff:      0.126D-01-0.290D-01-0.121D+00 0.450D+00 0.130D+00-0.150D+01
 Coeff:      0.205D+01
 Gap=     0.432 Goal=   None    Shift=    0.000
 RMSDP=8.79D-06 MaxDP=2.40D-04 DE=-2.06D-06 OVMax= 1.30D-03

 Cycle  14  Pass 1  IDiag  1:
 E= -527.125897415257     Delta-E=       -0.000000536385 Rises=F Damp=F
 DIIS: error= 7.64D-06 at cycle  14 NSaved=  14.
 NSaved=14 IEnMin=14 EnMin= -527.125897415257     IErMin=14 ErrMin= 7.64D-06
 ErrMax= 7.64D-06  0.00D+00 EMaxC= 1.00D-01 BMatC= 4.58D-09 BMatP= 3.57D-08
 IDIUse=1 WtCom= 1.00D+00 WtEn= 0.00D+00
 Coeff-Com: -0.446D-04 0.762D-04 0.358D-03 0.248D-03-0.253D-02-0.699D-03
 Coeff-Com:  0.861D-02 0.631D-03-0.584D-01 0.568D-01 0.149D+00-0.188D+00
 Coeff-Com: -0.275D+00 0.131D+01
 Coeff:     -0.446D-04 0.762D-04 0.358D-03 0.248D-03-0.253D-02-0.699D-03
 Coeff:      0.861D-02 0.631D-03-0.584D-01 0.568D-01 0.149D+00-0.188D+00
 Coeff:     -0.275D+00 0.131D+01
 Gap=     0.432 Goal=   None    Shift=    0.000
 RMSDP=2.13D-06 MaxDP=5.96D-05 DE=-5.36D-07 OVMax= 2.91D-04

 Cycle  15  Pass 1  IDiag  1:
 E= -527.125897457718     Delta-E=       -0.000000042461 Rises=F Damp=F
 DIIS: error= 3.67D-06 at cycle  15 NSaved=  15.
 NSaved=15 IEnMin=15 EnMin= -527.125897457718     IErMin=15 ErrMin= 3.67D-06
 ErrMax= 3.67D-06  0.00D+00 EMaxC= 1.00D-01 BMatC= 1.29D-09 BMatP= 4.58D-09
 IDIUse=1 WtCom= 1.00D+00 WtEn= 0.00D+00
 Coeff-Com: -0.814D-05 0.119D-04 0.541D-04 0.340D-03-0.153D-03-0.141D-02
 Coeff-Com: -0.797D-03 0.678D-02 0.934D-02-0.744D-01 0.914D-02 0.248D+00
 Coeff-Com: -0.454D+00 0.287D+00 0.970D+00
 Coeff:     -0.814D-05 0.119D-04 0.541D-04 0.340D-03-0.153D-03-0.141D-02
 Coeff:     -0.797D-03 0.678D-02 0.934D-02-0.744D-01 0.914D-02 0.248D+00
 Coeff:     -0.454D+00 0.287D+00 0.970D+00
 Gap=     0.432 Goal=   None    Shift=    0.000
 RMSDP=5.90D-07 MaxDP=1.84D-05 DE=-4.25D-08 OVMax= 6.24D-05

 Cycle  16  Pass 1  IDiag  1:
 E= -527.125897465031     Delta-E=       -0.000000007313 Rises=F Damp=F
 DIIS: error= 2.21D-06 at cycle  16 NSaved=  16.
 NSaved=16 IEnMin=16 EnMin= -527.125897465031     IErMin=16 ErrMin= 2.21D-06
 ErrMax= 2.21D-06  0.00D+00 EMaxC= 1.00D-01 BMatC= 5.36D-10 BMatP= 1.29D-09
 IDIUse=1 WtCom= 1.00D+00 WtEn= 0.00D+00
 Coeff-Com:  0.167D-04-0.309D-04-0.808D-04-0.142D-03 0.758D-03 0.216D-03
 Coeff-Com: -0.243D-02-0.833D-03 0.168D-01-0.375D-02-0.538D-01 0.141D-01
 Coeff-Com:  0.187D+00-0.477D+00-0.281D+00 0.160D+01
 Coeff:      0.167D-04-0.309D-04-0.808D-04-0.142D-03 0.758D-03 0.216D-03
 Coeff:     -0.243D-02-0.833D-03 0.168D-01-0.375D-02-0.538D-01 0.141D-01
 Coeff:      0.187D+00-0.477D+00-0.281D+00 0.160D+01
 Gap=     0.432 Goal=   None    Shift=    0.000
 RMSDP=5.01D-07 MaxDP=1.57D-05 DE=-7.31D-09 OVMax= 6.53D-05

 Cycle  17  Pass 1  IDiag  1:
 E= -527.125897470096     Delta-E=       -0.000000005065 Rises=F Damp=F
 DIIS: error= 1.36D-06 at cycle  17 NSaved=  17.
 NSaved=17 IEnMin=17 EnMin= -527.125897470096     IErMin=17 ErrMin= 1.36D-06
 ErrMax= 1.36D-06  0.00D+00 EMaxC= 1.00D-01 BMatC= 2.49D-10 BMatP= 5.36D-10
 IDIUse=1 WtCom= 1.00D+00 WtEn= 0.00D+00
 Coeff-Com:  0.335D-05-0.654D-05 0.112D-04-0.982D-04 0.231D-04 0.174D-03
 Coeff-Com:  0.956D-03-0.187D-02-0.890D-02 0.248D-01 0.213D-01-0.808D-01
 Coeff-Com:  0.356D-01 0.198D+00-0.191D+00-0.107D+01 0.208D+01
 Coeff:      0.335D-05-0.654D-05 0.112D-04-0.982D-04 0.231D-04 0.174D-03
 Coeff:      0.956D-03-0.187D-02-0.890D-02 0.248D-01 0.213D-01-0.808D-01
 Coeff:      0.356D-01 0.198D+00-0.191D+00-0.107D+01 0.208D+01
 Gap=     0.432 Goal=   None    Shift=    0.000
 RMSDP=4.88D-07 MaxDP=1.41D-05 DE=-5.07D-09 OVMax= 6.98D-05

 Cycle  18  Pass 1  IDiag  1:
 E= -527.125897473170     Delta-E=       -0.000000003074 Rises=F Damp=F
 DIIS: error= 8.72D-07 at cycle  18 NSaved=  18.
 NSaved=18 IEnMin=18 EnMin= -527.125897473170     IErMin=18 ErrMin= 8.72D-07
 ErrMax= 8.72D-07  0.00D+00 EMaxC= 1.00D-01 BMatC= 5.61D-11 BMatP= 2.49D-10
 IDIUse=1 WtCom= 1.00D+00 WtEn= 0.00D+00
 Coeff-Com:  0.801D-06-0.800D-06-0.726D-05 0.323D-04-0.649D-05-0.134D-03
 Coeff-Com:  0.217D-03 0.566D-03-0.227D-02-0.578D-02 0.139D-01 0.161D-01
 Coeff-Com: -0.878D-01 0.167D+00 0.137D+00-0.574D+00-0.175D+00 0.151D+01
 Coeff:      0.801D-06-0.800D-06-0.726D-05 0.323D-04-0.649D-05-0.134D-03
 Coeff:      0.217D-03 0.566D-03-0.227D-02-0.578D-02 0.139D-01 0.161D-01
 Coeff:     -0.878D-01 0.167D+00 0.137D+00-0.574D+00-0.175D+00 0.151D+01
 Gap=     0.432 Goal=   None    Shift=    0.000
 RMSDP=3.21D-07 MaxDP=8.90D-06 DE=-3.07D-09 OVMax= 4.71D-05

 Cycle  19  Pass 1  IDiag  1:
 E= -527.125897474013     Delta-E=       -0.000000000843 Rises=F Damp=F
 DIIS: error= 3.56D-07 at cycle  19 NSaved=  19.
 NSaved=19 IEnMin=19 EnMin= -527.125897474013     IErMin=19 ErrMin= 3.56D-07
 ErrMax= 3.56D-07  0.00D+00 EMaxC= 1.00D-01 BMatC= 6.82D-12 BMatP= 5.61D-11
 IDIUse=1 WtCom= 1.00D+00 WtEn= 0.00D+00
 Coeff-Com: -0.618D-06 0.112D-05-0.194D-05 0.135D-04 0.219D-04-0.514D-04
 Coeff-Com: -0.252D-03 0.277D-03 0.263D-02-0.458D-02-0.636D-02 0.123D-01
 Coeff-Com:  0.114D-01-0.741D-01 0.137D-01 0.316D+00-0.353D+00-0.352D+00
 Coeff-Com:  0.143D+01
 Coeff:     -0.618D-06 0.112D-05-0.194D-05 0.135D-04 0.219D-04-0.514D-04
 Coeff:     -0.252D-03 0.277D-03 0.263D-02-0.458D-02-0.636D-02 0.123D-01
 Coeff:      0.114D-01-0.741D-01 0.137D-01 0.316D+00-0.353D+00-0.352D+00
 Coeff:      0.143D+01
 Gap=     0.433 Goal=   None    Shift=    0.000
 RMSDP=9.68D-08 MaxDP=2.37D-06 DE=-8.43D-10 OVMax= 1.42D-05

 Cycle  20  Pass 1  IDiag  1:
 E= -527.125897474088     Delta-E=       -0.000000000075 Rises=F Damp=F
 DIIS: error= 9.78D-08 at cycle  20 NSaved=  20.
 NSaved=20 IEnMin=20 EnMin= -527.125897474088     IErMin=20 ErrMin= 9.78D-08
 ErrMax= 9.78D-08  0.00D+00 EMaxC= 1.00D-01 BMatC= 7.48D-13 BMatP= 6.82D-12
 IDIUse=1 WtCom= 1.00D+00 WtEn= 0.00D+00
 Coeff-Com: -0.564D-06 0.869D-06 0.358D-05-0.153D-05-0.136D-04 0.441D-05
 Coeff-Com:  0.165D-04-0.571D-04 0.768D-04 0.789D-03-0.117D-02-0.239D-02
 Coeff-Com:  0.932D-02-0.156D-01-0.174D-01 0.514D-01 0.463D-01-0.180D+00
 Coeff-Com: -0.607D-01 0.117D+01
 Coeff:     -0.564D-06 0.869D-06 0.358D-05-0.153D-05-0.136D-04 0.441D-05
 Coeff:      0.165D-04-0.571D-04 0.768D-04 0.789D-03-0.117D-02-0.239D-02
 Coeff:      0.932D-02-0.156D-01-0.174D-01 0.514D-01 0.463D-01-0.180D+00
 Coeff:     -0.607D-01 0.117D+01
 Gap=     0.433 Goal=   None    Shift=    0.000
 RMSDP=1.95D-08 MaxDP=4.02D-07 DE=-7.54D-11 OVMax= 2.48D-06

 Cycle  21  Pass 1  IDiag  1:
 E= -527.125897474093     Delta-E=       -0.000000000005 Rises=F Damp=F
 DIIS: error= 2.67D-08 at cycle  21 NSaved=  20.
 NSaved=20 IEnMin=20 EnMin= -527.125897474093     IErMin=20 ErrMin= 2.67D-08
 ErrMax= 2.67D-08  0.00D+00 EMaxC= 1.00D-01 BMatC= 1.44D-13 BMatP= 7.48D-13
 IDIUse=1 WtCom= 1.00D+00 WtEn= 0.00D+00
 Coeff-Com: -0.340D-07 0.777D-06-0.213D-05-0.413D-05 0.115D-04 0.308D-04
 Coeff-Com: -0.615D-04-0.299D-03 0.811D-03 0.546D-03-0.229D-02 0.679D-03
 Coeff-Com:  0.682D-02-0.681D-02-0.341D-01 0.671D-01 0.228D-02-0.235D+00
 Coeff-Com:  0.330D+00 0.871D+00
 Coeff:     -0.340D-07 0.777D-06-0.213D-05-0.413D-05 0.115D-04 0.308D-04
 Coeff:     -0.615D-04-0.299D-03 0.811D-03 0.546D-03-0.229D-02 0.679D-03
 Coeff:      0.682D-02-0.681D-02-0.341D-01 0.671D-01 0.228D-02-0.235D+00
 Coeff:      0.330D+00 0.871D+00
 Gap=     0.433 Goal=   None    Shift=    0.000
 RMSDP=5.00D-09 MaxDP=8.70D-08 DE=-5.00D-12 OVMax= 5.13D-07

 SCF Done:  E(RHF) =  -527.125897474     A.U. after   21 cycles
            NFock= 21  Conv=0.50D-08     -V/T= 2.0027
 KE= 5.257159897951D+02 PE=-1.946693971432D+03 EE= 5.442244040995D+02
 Leave Link  502 at Wed Sep 25 09:48:42 2024, MaxMem=   104857600 cpu:               4.8 elap:               4.8
 (Enter /usr/local/g16/l601.exe)
 Copying SCF densities to generalized density rwf, IOpCl= 0 IROHF=0.

 **********************************************************************

            Population analysis using the SCF density.

 **********************************************************************

 Orbital symmetries:
       Occupied  (A) (A) (A) (A) (A) (A) (A) (A) (A) (A) (A) (A)
                 (A) (A) (A) (A) (A) (A) (A) (A) (A) (A) (A) (A)
                 (A) (A) (A) (A) (A) (A) (A) (A)
       Virtual   (A) (A) (A) (A) (A) (A) (A) (A) (A) (A) (A) (A)
                 (A) (A) (A) (A) (A) (A) (A) (A) (A) (A) (A) (A)
                 (A) (A) (A) (A) (A) (A) (A) (A) (A) (A) (A) (A)
                 (A) (A) (A) (A) (A) (A) (A) (A) (A) (A) (A) (A)
                 (A) (A) (A) (A) (A) (A) (A) (A) (A) (A) (A) (A)
                 (A) (A) (A) (A) (A) (A) (A) (A) (A) (A) (A) (A)
                 (A) (A) (A) (A) (A) (A) (A) (A) (A) (A) (A) (A)
                 (A) (A) (A) (A) (A) (A) (A) (A) (A) (A) (A) (A)
                 (A) (A) (A) (A) (A) (A) (A) (A) (A) (A) (A) (A)
                 (A) (A) (A) (A) (A) (A) (A) (A) (A) (A) (A) (A)
                 (A) (A) (A) (A) (A) (A) (A) (A) (A) (A) (A) (A)
                 (A) (A) (A) (A)
 The electronic state is 1-A.
 Alpha  occ. eigenvalues --  -20.67133 -20.62362 -20.61877 -20.58828 -20.57089
 Alpha  occ. eigenvalues --  -20.56785 -11.50543 -11.47665  -1.47321  -1.46833
 Alpha  occ. eigenvalues --   -1.40183  -1.38935  -1.34690  -1.22299  -0.92140
 Alpha  occ. eigenvalues --   -0.87263  -0.76379  -0.75455  -0.71369  -0.70703
 Alpha  occ. eigenvalues --   -0.67250  -0.65878  -0.62125  -0.61268  -0.58020
 Alpha  occ. eigenvalues --   -0.55760  -0.55007  -0.51201  -0.48643  -0.47635
 Alpha  occ. eigenvalues --   -0.44462  -0.43358
 Alpha virt. eigenvalues --   -0.00108   0.11948   0.13281   0.15740   0.19778
 Alpha virt. eigenvalues --    0.22050   0.27253   0.34267   0.37386   0.41885
 Alpha virt. eigenvalues --    0.45541   0.50074   0.52363   0.54575   0.55397
 Alpha virt. eigenvalues --    0.56694   0.58193   0.59412   0.60871   0.61408
 Alpha virt. eigenvalues --    0.63966   0.65239   0.68264   0.78882   0.96849
 Alpha virt. eigenvalues --    0.98402   0.99243   1.00302   1.01696   1.02608
 Alpha virt. eigenvalues --    1.03644   1.07801   1.08065   1.08646   1.11698
 Alpha virt. eigenvalues --    1.12683   1.14792   1.16074   1.19006   1.20106
 Alpha virt. eigenvalues --    1.24752   1.28119   1.40953   1.43021   1.45963
 Alpha virt. eigenvalues --    1.49652   1.51617   1.52269   1.54007   1.60011
 Alpha virt. eigenvalues --    1.64730   1.66871   1.69944   1.70405   1.72740
 Alpha virt. eigenvalues --    1.78008   1.79099   1.80772   1.82885   1.85200
 Alpha virt. eigenvalues --    1.86911   1.90564   1.94155   1.96323   1.99454
 Alpha virt. eigenvalues --    2.11462   2.22967   2.25976   2.35095   2.41861
 Alpha virt. eigenvalues --    2.62514   2.69318   2.71155   2.74926   2.77798
 Alpha virt. eigenvalues --    2.79050   2.90701   3.00198   3.05918   3.18764
 Alpha virt. eigenvalues --    3.20773   3.22221   3.23106   3.24379   3.27505
 Alpha virt. eigenvalues --    3.31963   3.34153   3.38193   3.39318   3.40263
 Alpha virt. eigenvalues --    3.44996   3.46009   3.49270   3.55320   3.56759
 Alpha virt. eigenvalues --    3.59889   3.63467   3.65742   3.67470   3.77548
 Alpha virt. eigenvalues --    3.83488   3.90197   4.08658   4.11590   4.12653
 Alpha virt. eigenvalues --    4.15332   4.27614   4.29931   4.35898   4.36455
 Alpha virt. eigenvalues --    5.29880   5.31297   5.35292   5.35731   5.38659
 Alpha virt. eigenvalues --    5.41310   5.42401   5.50507   5.54217   5.57870
 Alpha virt. eigenvalues --    5.65217   5.71756   5.73490   5.96742   6.05490
 Alpha virt. eigenvalues --    6.22623   6.27326   6.36742  24.31599  24.59079
 Alpha virt. eigenvalues --   51.44743  51.47099  51.48059  51.52992  51.57048
 Alpha virt. eigenvalues --   51.59954
          Condensed to atoms (all electrons):
               1          2          3          4          5          6
     1  C    4.123782   0.568737   0.316949  -0.025404   0.307773  -0.023972
     2  O    0.568737   8.017483  -0.063540   0.003105  -0.060269   0.000964
     3  O    0.316949  -0.063540   7.899219   0.326244  -0.037430   0.001321
     4  H   -0.025404   0.003105   0.326244   0.358196   0.001363  -0.000198
     5  O    0.307773  -0.060269  -0.037430   0.001363   7.887710   0.333473
     6  H   -0.023972   0.000964   0.001321  -0.000198   0.333473   0.391994
     7  C    0.000217  -0.000083   0.000052  -0.002048  -0.000000  -0.000000
     8  O    0.000696  -0.000423  -0.001676   0.012927   0.000000   0.000003
     9  O    0.000219  -0.001681  -0.000018   0.001526  -0.000000   0.000000
    10  H   -0.000910   0.014164   0.000014   0.000214   0.000072  -0.000004
    11  O    0.000000   0.000000  -0.000000   0.000037  -0.000000   0.000000
    12  H    0.000000   0.000001   0.000000  -0.000002   0.000000  -0.000000
               7          8          9         10         11         12
     1  C    0.000217   0.000696   0.000219  -0.000910   0.000000   0.000000
     2  O   -0.000083  -0.000423  -0.001681   0.014164   0.000000   0.000001
     3  O    0.000052  -0.001676  -0.000018   0.000014  -0.000000   0.000000
     4  H   -0.002048   0.012927   0.001526   0.000214   0.000037  -0.000002
     5  O   -0.000000   0.000000  -0.000000   0.000072  -0.000000   0.000000
     6  H   -0.000000   0.000003   0.000000  -0.000004   0.000000  -0.000000
     7  C    4.593583   0.258381   0.286527  -0.021409   0.261910  -0.012154
     8  O    0.258381   8.343757  -0.137060   0.006550  -0.015538   0.000191
     9  O    0.286527  -0.137060   7.962291   0.350011  -0.040772   0.001597
    10  H   -0.021409   0.006550   0.350011   0.328862   0.000524  -0.000183
    11  O    0.261910  -0.015538  -0.040772   0.000524   7.837320   0.320326
    12  H   -0.012154   0.000191   0.001597  -0.000183   0.320326   0.393172
 Mulliken charges:
               1
     1  C    0.731913
     2  O   -0.478459
     3  O   -0.441136
     4  H    0.324040
     5  O   -0.432691
     6  H    0.296418
     7  C    0.635024
     8  O   -0.467808
     9  O   -0.422642
    10  H    0.322096
    11  O   -0.363808
    12  H    0.297053
 Sum of Mulliken charges =  -0.00000
 Mulliken charges with hydrogens summed into heavy atoms:
               1
     1  C    0.731913
     2  O   -0.478459
     3  O   -0.117096
     5  O   -0.136273
     7  C    0.635024
     8  O   -0.467808
     9  O   -0.100546
    11  O   -0.066754
 Electronic spatial extent (au):  <R**2>=           1720.5404
 Charge=             -0.0000 electrons
 Dipole moment (field-independent basis, Debye):
    X=              2.2470    Y=             -1.6532    Z=              3.4791  Tot=              4.4593
 Quadrupole moment (field-independent basis, Debye-Ang):
   XX=            -24.9867   YY=            -50.2737   ZZ=            -42.1773
   XY=             -4.1539   XZ=              2.1612   YZ=             -2.9841
 Traceless Quadrupole moment (field-independent basis, Debye-Ang):
   XX=             14.1592   YY=            -11.1278   ZZ=             -3.0314
   XY=             -4.1539   XZ=              2.1612   YZ=             -2.9841
 Octapole moment (field-independent basis, Debye-Ang**2):
  XXX=             68.3916  YYY=             -4.2067  ZZZ=              2.7350  XYY=              4.1461
  XXY=            -19.4077  XXZ=             69.4224  XZZ=             -6.6372  YZZ=             -2.2641
  YYZ=             -1.1332  XYZ=             -6.1224
 Hexadecapole moment (field-independent basis, Debye-Ang**3):
 XXXX=          -1245.1586 YYYY=           -202.1441 ZZZZ=            -57.6217 XXXY=            -33.1856
 XXXZ=             21.0325 YYYX=             -4.7311 YYYZ=             -3.6899 ZZZX=             -9.5585
 ZZZY=             -3.4399 XXYY=           -352.9218 XXZZ=           -240.7996 YYZZ=            -44.0938
 XXYZ=            -26.8929 YYXZ=             -2.9527 ZZXY=              2.1907
 N-N= 3.496276800634D+02 E-N=-1.946693971347D+03  KE= 5.257159897951D+02
 No NMR shielding tensors so no spin-rotation constants.
 Leave Link  601 at Wed Sep 25 09:48:42 2024, MaxMem=   104857600 cpu:               0.1 elap:               0.1
 (Enter /usr/local/g16/l701.exe)
 ... and contract with generalized density number  0.
 Compute integral first derivatives.
 Leave Link  701 at Wed Sep 25 09:48:42 2024, MaxMem=   104857600 cpu:               0.1 elap:               0.1
 (Enter /usr/local/g16/l702.exe)
 L702 exits ... SP integral derivatives will be done elsewhere.
 Leave Link  702 at Wed Sep 25 09:48:42 2024, MaxMem=   104857600 cpu:               0.0 elap:               0.0
 (Enter /usr/local/g16/l703.exe)
 Integral derivatives from FoFJK, PRISM(SPDF).
 Compute integral first derivatives, UseDBF=F ICtDFT=           0.
 Calling FoFJK, ICntrl=      2127 FMM=F ISym2X=0 I1Cent= 0 IOpClX= 0 NMat=1 NMatS=1 NMatT=0.
 FoFJK:  IHMeth= 1 ICntrl=    2127 DoSepK=F KAlg= 0 I1Cent=           0 FoldK=F
 IRaf=         0 NMat=       1 IRICut=       1 DoRegI=T DoRafI=F ISym2E= 0 IDoP0=0 IntGTp=1.
 FoFCou: FMM=F IPFlag=           0 FMFlag=      100000 FMFlg1=         800
         NFxFlg=           0 DoJE=F BraDBF=F KetDBF=F FulRan=T
         wScrn=  0.000000 ICntrl=      2127 IOpCl=  0 I1Cent=           0 NGrid=           0
         NMat0=    1 NMatS0=      1 NMatT0=    0 NMatD0=    1 NMtDS0=    0 NMtDT0=    0
 Symmetry not used in FoFCou.
 Leave Link  703 at Wed Sep 25 09:48:46 2024, MaxMem=   104857600 cpu:               3.5 elap:               3.5
 (Enter /usr/local/g16/l716.exe)
 Dipole        = 8.84022366D-01-6.50400199D-01 1.36877536D+00
 ***** Axes restored to original set *****
 -------------------------------------------------------------------
 Center     Atomic                   Forces (Hartrees/Bohr)
 Number     Number              X              Y              Z
 -------------------------------------------------------------------
      1        6           0.037369975    0.081372053    0.012233814
      2        8          -0.024656669   -0.130636044   -0.014562575
      3        8          -0.078155852    0.045403038   -0.032440891
      4        1          -0.013172249    0.005973004   -0.007838150
      5        8           0.077371755    0.001911854    0.026054443
      6        1           0.003628563    0.001879193    0.017443378
      7        6          -0.139101666   -0.159523766    0.104764376
      8        8           0.102572913    0.101900517   -0.019902693
      9        8           0.141678567    0.107256843    0.061866898
     10        1          -0.051616321   -0.018296754   -0.065218725
     11        8          -0.053037770   -0.024562264   -0.087685359
     12        1          -0.002881244   -0.012677675    0.005285483
 -------------------------------------------------------------------
 Cartesian Forces:  Max     0.159523766 RMS     0.069435943
 Leave Link  716 at Wed Sep 25 09:48:46 2024, MaxMem=   104857600 cpu:               0.0 elap:               0.0
 (Enter /usr/local/g16/l103.exe)

 GradGradGradGradGradGradGradGradGradGradGradGradGradGradGradGradGradGrad
 Berny optimization.
 FormGI is forming the generalized inverse of G from B-inverse, IUseBI=4.
 Internal  Forces:  Max     0.128929130 RMS     0.050923393
 Search for a local minimum.
 Step number   1 out of a maximum of   52
 All quantities printed in internal units (Hartrees-Bohrs-Radians)
 RMS Force = .50923D-01 SwitMx=.10000D-02 MixMth= 1
 Mixed Optimization -- RFO/linear search
 Second derivative matrix not updated -- first step.
 ITU=  0
     Eigenvalues ---    0.00403   0.00952   0.01267   0.01295   0.01295
     Eigenvalues ---    0.02040   0.02460   0.02518   0.03142   0.04317
     Eigenvalues ---    0.05737   0.10637   0.16000   0.16000   0.16826
     Eigenvalues ---    0.18815   0.19569   0.20940   0.22414   0.24156
     Eigenvalues ---    0.25000   0.40098   0.40726   0.40989   0.40989
     Eigenvalues ---    0.53952   0.55473   0.55473   0.72328   0.78524
 RFO step:  Lambda=-2.11862525D-01 EMin= 4.03257062D-03
 Linear search not attempted -- first point.
 Maximum step size (   0.300) exceeded in Quadratic search.
    -- Step size scaled by   0.512
 Iteration  1 RMS(Cart)=  0.08376529 RMS(Int)=  0.00308573
 Iteration  2 RMS(Cart)=  0.00383602 RMS(Int)=  0.00110887
 Iteration  3 RMS(Cart)=  0.00001322 RMS(Int)=  0.00110884
 Iteration  4 RMS(Cart)=  0.00000001 RMS(Int)=  0.00110884
 ITry= 1 IFail=0 DXMaxC= 1.79D-01 DCOld= 1.00D+10 DXMaxT= 3.00D-01 DXLimC= 3.00D+00 Rises=F
 Variable       Old X    -DE/DX   Delta X   Delta X   Delta X     New X
                                 (Linear)    (Quad)   (Total)
    R1        2.37803  -0.12893   0.00000  -0.06567  -0.06605   2.31199
    R2        2.70231  -0.09748   0.00000  -0.08177  -0.08247   2.61984
    R3        2.70231  -0.08842   0.00000  -0.07276  -0.07276   2.62955
    R4        4.53435  -0.00134   0.00000  -0.00286  -0.00278   4.53157
    R5        1.81414  -0.01278   0.00000  -0.00875  -0.00897   1.80516
    R6        4.42343  -0.00410   0.00000  -0.00896  -0.00909   4.41434
    R7        1.81414  -0.01692   0.00000  -0.01129  -0.01129   1.80285
    R8        3.01128  -0.12202   0.00000  -0.13606  -0.13569   2.87558
    R9        2.70231  -0.08741   0.00000  -0.07086  -0.07028   2.63202
   R10        2.70231  -0.10422   0.00000  -0.08576  -0.08576   2.61655
   R11        1.68056   0.07351   0.00000   0.04010   0.04054   1.72110
   R12        1.81414  -0.01296   0.00000  -0.00865  -0.00865   1.80549
    A1        2.09836   0.03889   0.00000   0.04064   0.03949   2.13785
    A2        2.09241   0.01269   0.00000   0.01528   0.01584   2.10825
    A3        2.09241  -0.05158   0.00000  -0.05591  -0.05535   2.03707
    A4        2.36339   0.00814   0.00000   0.01054   0.01048   2.37387
    A5        1.91114  -0.00301   0.00000  -0.00749  -0.00921   1.90193
    A6        2.78240  -0.00448   0.00000  -0.00230  -0.00104   2.78135
    A7        1.91114  -0.01009   0.00000  -0.01388  -0.01388   1.89725
    A8        1.53217   0.10740   0.00000   0.15290   0.15352   1.68569
    A9        2.33349  -0.00710   0.00000  -0.00154  -0.00469   2.32880
   A10        1.91063  -0.04783   0.00000  -0.03791  -0.04012   1.87051
   A11        2.45492  -0.05793   0.00000  -0.06681  -0.06541   2.38950
   A12        2.17036  -0.05225   0.00000  -0.07173  -0.07149   2.09886
   A13        2.57551  -0.03141   0.00000  -0.02618  -0.02357   2.55194
   A14        1.91114   0.00069   0.00000   0.00095   0.00095   1.91209
    D1       -0.26685  -0.01443   0.00000  -0.02244  -0.02151  -0.28835
    D2        2.87474  -0.01016   0.00000  -0.01610  -0.01489   2.85985
    D3       -0.00000  -0.00073   0.00000  -0.00127  -0.00005  -0.00005
    D4        3.14159  -0.00499   0.00000  -0.00762  -0.00641   3.13518
    D5        1.35463  -0.00379   0.00000  -0.00696  -0.00692   1.34771
    D6       -1.78696   0.00046   0.00000  -0.00063  -0.00067  -1.78764
    D7        0.22063  -0.02788   0.00000  -0.05220  -0.05138   0.16924
    D8       -0.92717   0.01231   0.00000   0.01971   0.02010  -0.90707
    D9        1.47054   0.01129   0.00000   0.01857   0.01835   1.48889
   D10        0.21008  -0.00938   0.00000  -0.03381  -0.03643   0.17365
   D11        2.21925   0.03020   0.00000   0.06952   0.07030   2.28955
   D12       -1.19430   0.03326   0.00000   0.06648   0.06583  -1.12847
   D13        2.71477   0.00559   0.00000   0.00823   0.00585   2.72063
   D14        2.22799  -0.05802   0.00000  -0.10588  -0.10566   2.12234
   D15       -2.19935   0.04885   0.00000   0.08501   0.08479  -2.11457
   D16        1.33214  -0.02764   0.00000  -0.04873  -0.04859   1.28355
         Item               Value     Threshold  Converged?
 Maximum Force            0.128929     0.000450     NO 
 RMS     Force            0.050923     0.000300     NO 
 Maximum Displacement     0.178975     0.001800     NO 
 RMS     Displacement     0.082966     0.001200     NO 
 Predicted change in Energy=-9.384756D-02
 Lowest energy point so far.  Saving SCF results.
 GradGradGradGradGradGradGradGradGradGradGradGradGradGradGradGradGradGrad

 Leave Link  103 at Wed Sep 25 09:48:46 2024, MaxMem=   104857600 cpu:               0.0 elap:               0.0
 (Enter /usr/local/g16/l202.exe)
                          Input orientation:                          
 ---------------------------------------------------------------------
 Center     Atomic      Atomic             Coordinates (Angstroms)
 Number     Number       Type             X           Y           Z
 ---------------------------------------------------------------------
      1          6           0       -0.546506    0.437029   -0.944590
      2          8           0       -0.352314    1.637672   -0.812008
      3          8           0        0.383052   -0.515105   -0.555542
      4          1           0        1.147020   -0.072476   -0.190937
      5          8           0       -1.727276   -0.035564   -1.509131
      6          1           0       -1.680360    0.076726   -2.455363
      7          6           0        3.160767    2.850165    0.414811
      8          8           0        2.944096    1.411262   -0.030346
      9          8           0        1.898550    3.036267    0.973457
     10          1           0        1.155716    3.012857    0.447012
     11          8           0        4.074929    3.458145    1.258517
     12          1           0        4.556472    4.129068    0.778091
 ---------------------------------------------------------------------
                    Distance matrix (angstroms):
                    1          2          3          4          5
     1  C    0.000000
     2  O    1.223450   0.000000
     3  O    1.386361   2.289320   0.000000
     4  H    1.922399   2.357612   0.955251   0.000000
     5  O    1.391499   2.275131   2.364905   3.162368   0.000000
     6  H    1.922987   2.626951   2.866575   3.625460   0.954025
     7  C    4.627642   3.913689   4.470160   3.600547   5.993493
     8  O    3.737549   3.395376   3.247409   2.335969   5.108995
     9  O    4.051326   3.195363   4.152929   3.403658   5.361530
    10  H    3.386592   2.398003   3.748152   3.150608   4.629364
    11  O    5.944618   5.215524   5.719046   4.810287   7.316521
    12  H    6.529867   5.729891   6.384697   5.496940   7.877883
                    6          7          8          9         10
     6  H    0.000000
     7  C    6.274263   0.000000
     8  O    5.389553   1.521694   0.000000
     9  O    5.772719   1.392807   2.177481   0.000000
    10  H    5.008789   2.011898   2.447709   0.910766   0.000000
    11  O    7.638734   1.384620   2.670147   2.235144   3.062455
    12  H    8.110165   1.927578   3.261870   2.880440   3.594535
                   11         12
    11  O    0.000000
    12  H    0.955422   0.000000
 Stoichiometry    C2H4O6
 Framework group  C1[X(C2H4O6)]
 Deg. of freedom    30
 Full point group                 C1      NOp   1
 RotChk:  IX=0 Diff= 5.03D-02
 Largest Abelian subgroup         C1      NOp   1
 Largest concise Abelian subgroup C1      NOp   1
                         Standard orientation:                         
 ---------------------------------------------------------------------
 Center     Atomic      Atomic             Coordinates (Angstroms)
 Number     Number       Type             X           Y           Z
 ---------------------------------------------------------------------
      1          6           0       -2.234305   -0.071786   -0.023113
      2          8           0       -1.412732   -0.947397    0.211738
      3          8           0       -1.867916    1.216865   -0.379671
      4          1           0       -0.914621    1.273797   -0.401873
      5          8           0       -3.598287   -0.332287    0.066106
      6          1           0       -3.848480   -0.341228    0.986697
      7          6           0        2.380000    0.012241    0.317770
      8          8           0        1.303510    1.087694    0.306653
      9          8           0        1.704107   -0.898594   -0.490599
     10          1           0        0.925756   -1.275858   -0.205403
     11          8           0        3.709801   -0.007513   -0.067474
     12          1           0        4.255313   -0.249581    0.678616
 ---------------------------------------------------------------------
 Rotational constants (GHZ):           5.8401283           0.6625986           0.6114548
 Leave Link  202 at Wed Sep 25 09:48:46 2024, MaxMem=   104857600 cpu:               0.0 elap:               0.0
 (Enter /usr/local/g16/l301.exe)
 Standard basis: 6-311G(d,p) (5D, 7F)
 Ernie: Thresh=  0.10000D-02 Tol=  0.10000D-05 Strict=F.
 There are   176 symmetry adapted cartesian basis functions of A   symmetry.
 There are   168 symmetry adapted basis functions of A   symmetry.
   168 basis functions,   288 primitive gaussians,   176 cartesian basis functions
    32 alpha electrons       32 beta electrons
       nuclear repulsion energy       356.8900951817 Hartrees.
 IExCor=    0 DFT=F Ex=HF Corr=None ExCW=0 ScaHFX=  1.000000
 ScaDFX=  1.000000  1.000000  1.000000  1.000000 ScalE2=  1.000000  1.000000
 IRadAn=      5 IRanWt=     -1 IRanGd=            0 ICorTp=0 IEmpDi=  4
 NAtoms=   12 NActive=   12 NUniq=   12 SFac= 1.00D+00 NAtFMM=   60 NAOKFM=F Big=F
 Integral buffers will be    131072 words long.
 Raffenetti 1 integral format.
 Two-electron integral symmetry is turned on.
 Leave Link  301 at Wed Sep 25 09:48:46 2024, MaxMem=   104857600 cpu:               0.0 elap:               0.0
 (Enter /usr/local/g16/l302.exe)
 NPDir=0 NMtPBC=     1 NCelOv=     1 NCel=       1 NClECP=     1 NCelD=      1
         NCelK=      1 NCelE2=     1 NClLst=     1 CellRange=     0.0.
 One-electron integrals computed using PRISM.
 One-electron integral symmetry used in STVInt
 NBasis=   168 RedAO= T EigKep=  8.94D-03  NBF=   168
 NBsUse=   168 1.00D-06 EigRej= -1.00D+00 NBFU=   168
 Leave Link  302 at Wed Sep 25 09:48:46 2024, MaxMem=   104857600 cpu:               0.1 elap:               0.1
 (Enter /usr/local/g16/l303.exe)
 DipDrv:  MaxL=1.
 Leave Link  303 at Wed Sep 25 09:48:46 2024, MaxMem=   104857600 cpu:               0.0 elap:               0.0
 (Enter /usr/local/g16/l401.exe)
 Initial guess from the checkpoint file:  "carbonic_acid_input.chk"
 B after Tr=     0.000000    0.000000   -0.000000
         Rot=    0.999893    0.014523    0.000480   -0.001368 Ang=   1.67 deg.
 Guess basis will be translated and rotated to current coordinates.
 JPrj=2 DoOrth=T DoCkMO=T.
 Generating alternative initial guess.
 ExpMin= 1.03D-01 ExpMax= 8.59D+03 ExpMxC= 1.30D+03 IAcc=2 IRadAn=         4 AccDes= 0.00D+00
 Harris functional with IExCor=  205 and IRadAn=       4 diagonalized for initial guess.
 HarFok:  IExCor=  205 AccDes= 0.00D+00 IRadAn=         4 IDoV= 1 UseB2=F ITyADJ=14
 ICtDFT=  3500011 ScaDFX=  1.000000  1.000000  1.000000  1.000000
 FoFCou: FMM=F IPFlag=           0 FMFlag=      100000 FMFlg1=           0
         NFxFlg=           0 DoJE=T BraDBF=F KetDBF=T FulRan=T
         wScrn=  0.000000 ICntrl=       500 IOpCl=  0 I1Cent=   200000004 NGrid=           0
         NMat0=    1 NMatS0=      1 NMatT0=    0 NMatD0=    1 NMtDS0=    0 NMtDT0=    0
 Petite list used in FoFCou.
 Harris En= -527.568282354214    
 Leave Link  401 at Wed Sep 25 09:48:47 2024, MaxMem=   104857600 cpu:               0.5 elap:               0.5
 (Enter /usr/local/g16/l502.exe)
 Keep R1 ints in memory in canonical form, NReq=103543833.
 FoFCou: FMM=F IPFlag=           0 FMFlag=           0 FMFlg1=           0
         NFxFlg=           0 DoJE=F BraDBF=F KetDBF=F FulRan=T
         wScrn=  0.000000 ICntrl=       600 IOpCl=  0 I1Cent=           0 NGrid=           0
         NMat0=    1 NMatS0=  14196 NMatT0=    0 NMatD0=    1 NMtDS0=    0 NMtDT0=    0
 Symmetry not used in FoFCou.
 Two-electron integral symmetry not used.
 Closed shell SCF:
 Using DIIS extrapolation, IDIIS=  1040.
 NGot=   104857600 LenX=     4022486 LenY=     3991069
 Requested convergence on RMS density matrix=1.00D-08 within 128 cycles.
 Requested convergence on MAX density matrix=1.00D-06.
 Requested convergence on             energy=1.00D-06.
 No special actions if energy rises.

 Cycle   1  Pass 1  IDiag  1:
 E= -527.209202959958    
 DIIS: error= 5.32D-03 at cycle   1 NSaved=   1.
 NSaved= 1 IEnMin= 1 EnMin= -527.209202959958     IErMin= 1 ErrMin= 5.32D-03
 ErrMax= 5.32D-03  0.00D+00 EMaxC= 1.00D-01 BMatC= 1.07D-02 BMatP= 1.07D-02
 IDIUse=3 WtCom= 9.47D-01 WtEn= 5.32D-02
 Coeff-Com:  0.100D+01
 Coeff-En:   0.100D+01
 Coeff:      0.100D+01
 Gap=     1.063 Goal=   None    Shift=    0.000
 GapD=    1.063 DampG=2.000 DampE=1.000 DampFc=2.0000 IDamp=-1.
 RMSDP=5.44D-04 MaxDP=1.56D-02              OVMax= 2.48D-02

 Cycle   2  Pass 1  IDiag  1:
 E= -527.222169995634     Delta-E=       -0.012967035676 Rises=F Damp=F
 DIIS: error= 1.75D-03 at cycle   2 NSaved=   2.
 NSaved= 2 IEnMin= 2 EnMin= -527.222169995634     IErMin= 2 ErrMin= 1.75D-03
 ErrMax= 1.75D-03  0.00D+00 EMaxC= 1.00D-01 BMatC= 9.54D-04 BMatP= 1.07D-02
 IDIUse=3 WtCom= 9.82D-01 WtEn= 1.75D-02
 Coeff-Com: -0.916D-01 0.109D+01
 Coeff-En:   0.000D+00 0.100D+01
 Coeff:     -0.900D-01 0.109D+01
 Gap=     0.465 Goal=   None    Shift=    0.000
 RMSDP=2.42D-04 MaxDP=6.48D-03 DE=-1.30D-02 OVMax= 1.54D-02

 Cycle   3  Pass 1  IDiag  1:
 E= -527.224250526008     Delta-E=       -0.002080530374 Rises=F Damp=F
 DIIS: error= 8.31D-04 at cycle   3 NSaved=   3.
 NSaved= 3 IEnMin= 3 EnMin= -527.224250526008     IErMin= 3 ErrMin= 8.31D-04
 ErrMax= 8.31D-04  0.00D+00 EMaxC= 1.00D-01 BMatC= 2.00D-04 BMatP= 9.54D-04
 IDIUse=3 WtCom= 9.92D-01 WtEn= 8.31D-03
 Coeff-Com: -0.876D-01 0.107D+00 0.980D+00
 Coeff-En:   0.000D+00 0.000D+00 0.100D+01
 Coeff:     -0.868D-01 0.106D+00 0.981D+00
 Gap=     0.463 Goal=   None    Shift=    0.000
 RMSDP=1.24D-04 MaxDP=4.60D-03 DE=-2.08D-03 OVMax= 1.06D-02

 Cycle   4  Pass 1  IDiag  1:
 E= -527.224779882938     Delta-E=       -0.000529356930 Rises=F Damp=F
 DIIS: error= 7.42D-04 at cycle   4 NSaved=   4.
 NSaved= 4 IEnMin= 4 EnMin= -527.224779882938     IErMin= 4 ErrMin= 7.42D-04
 ErrMax= 7.42D-04  0.00D+00 EMaxC= 1.00D-01 BMatC= 5.30D-05 BMatP= 2.00D-04
 IDIUse=3 WtCom= 9.93D-01 WtEn= 7.42D-03
 Coeff-Com:  0.798D-02-0.158D+00 0.558D-01 0.109D+01
 Coeff-En:   0.000D+00 0.000D+00 0.000D+00 0.100D+01
 Coeff:      0.792D-02-0.157D+00 0.554D-01 0.109D+01
 Gap=     0.459 Goal=   None    Shift=    0.000
 RMSDP=7.82D-05 MaxDP=2.08D-03 DE=-5.29D-04 OVMax= 7.14D-03

 Cycle   5  Pass 1  IDiag  1:
 E= -527.224969798969     Delta-E=       -0.000189916031 Rises=F Damp=F
 DIIS: error= 3.57D-04 at cycle   5 NSaved=   5.
 NSaved= 5 IEnMin= 5 EnMin= -527.224969798969     IErMin= 5 ErrMin= 3.57D-04
 ErrMax= 3.57D-04  0.00D+00 EMaxC= 1.00D-01 BMatC= 1.67D-05 BMatP= 5.30D-05
 IDIUse=3 WtCom= 9.96D-01 WtEn= 3.57D-03
 Coeff-Com:  0.248D-01-0.702D-01-0.222D+00 0.311D+00 0.956D+00
 Coeff-En:   0.000D+00 0.000D+00 0.000D+00 0.000D+00 0.100D+01
 Coeff:      0.247D-01-0.699D-01-0.221D+00 0.310D+00 0.956D+00
 Gap=     0.459 Goal=   None    Shift=    0.000
 RMSDP=4.78D-05 MaxDP=1.25D-03 DE=-1.90D-04 OVMax= 5.70D-03

 Cycle   6  Pass 1  IDiag  1:
 E= -527.225037973237     Delta-E=       -0.000068174268 Rises=F Damp=F
 DIIS: error= 2.18D-04 at cycle   6 NSaved=   6.
 NSaved= 6 IEnMin= 6 EnMin= -527.225037973237     IErMin= 6 ErrMin= 2.18D-04
 ErrMax= 2.18D-04  0.00D+00 EMaxC= 1.00D-01 BMatC= 4.43D-06 BMatP= 1.67D-05
 IDIUse=3 WtCom= 9.98D-01 WtEn= 2.18D-03
 Coeff-Com: -0.377D-02 0.435D-01 0.105D-02-0.359D+00-0.370D-01 0.136D+01
 Coeff-En:   0.000D+00 0.000D+00 0.000D+00 0.000D+00 0.000D+00 0.100D+01
 Coeff:     -0.376D-02 0.434D-01 0.105D-02-0.358D+00-0.369D-01 0.135D+01
 Gap=     0.457 Goal=   None    Shift=    0.000
 RMSDP=3.65D-05 MaxDP=7.36D-04 DE=-6.82D-05 OVMax= 4.54D-03

 Cycle   7  Pass 1  IDiag  1:
 E= -527.225064788642     Delta-E=       -0.000026815405 Rises=F Damp=F
 DIIS: error= 8.46D-05 at cycle   7 NSaved=   7.
 NSaved= 7 IEnMin= 7 EnMin= -527.225064788642     IErMin= 7 ErrMin= 8.46D-05
 ErrMax= 8.46D-05  0.00D+00 EMaxC= 1.00D-01 BMatC= 9.91D-07 BMatP= 4.43D-06
 IDIUse=1 WtCom= 1.00D+00 WtEn= 0.00D+00
 Coeff-Com: -0.692D-02 0.324D-01 0.518D-01-0.185D+00-0.237D+00 0.418D+00
 Coeff-Com:  0.926D+00
 Coeff:     -0.692D-02 0.324D-01 0.518D-01-0.185D+00-0.237D+00 0.418D+00
 Coeff:      0.926D+00
 Gap=     0.457 Goal=   None    Shift=    0.000
 RMSDP=1.37D-05 MaxDP=2.71D-04 DE=-2.68D-05 OVMax= 1.88D-03

 Cycle   8  Pass 1  IDiag  1:
 E= -527.225068904069     Delta-E=       -0.000004115427 Rises=F Damp=F
 DIIS: error= 3.53D-05 at cycle   8 NSaved=   8.
 NSaved= 8 IEnMin= 8 EnMin= -527.225068904069     IErMin= 8 ErrMin= 3.53D-05
 ErrMax= 3.53D-05  0.00D+00 EMaxC= 1.00D-01 BMatC= 1.17D-07 BMatP= 9.91D-07
 IDIUse=1 WtCom= 1.00D+00 WtEn= 0.00D+00
 Coeff-Com:  0.136D-02-0.127D-01-0.504D-02 0.927D-01 0.161D-01-0.301D+00
 Coeff-Com: -0.967D-01 0.131D+01
 Coeff:      0.136D-02-0.127D-01-0.504D-02 0.927D-01 0.161D-01-0.301D+00
 Coeff:     -0.967D-01 0.131D+01
 Gap=     0.457 Goal=   None    Shift=    0.000
 RMSDP=6.16D-06 MaxDP=1.19D-04 DE=-4.12D-06 OVMax= 8.23D-04

 Cycle   9  Pass 1  IDiag  1:
 E= -527.225069617363     Delta-E=       -0.000000713294 Rises=F Damp=F
 DIIS: error= 1.29D-05 at cycle   9 NSaved=   9.
 NSaved= 9 IEnMin= 9 EnMin= -527.225069617363     IErMin= 9 ErrMin= 1.29D-05
 ErrMax= 1.29D-05  0.00D+00 EMaxC= 1.00D-01 BMatC= 1.89D-08 BMatP= 1.17D-07
 IDIUse=1 WtCom= 1.00D+00 WtEn= 0.00D+00
 Coeff-Com:  0.335D-03-0.807D-03-0.367D-02 0.342D-02 0.981D-02 0.250D-01
 Coeff-Com: -0.856D-01-0.171D+00 0.122D+01
 Coeff:      0.335D-03-0.807D-03-0.367D-02 0.342D-02 0.981D-02 0.250D-01
 Coeff:     -0.856D-01-0.171D+00 0.122D+01
 Gap=     0.457 Goal=   None    Shift=    0.000
 RMSDP=1.81D-06 MaxDP=3.94D-05 DE=-7.13D-07 OVMax= 2.20D-04

 Cycle  10  Pass 1  IDiag  1:
 E= -527.225069719938     Delta-E=       -0.000000102575 Rises=F Damp=F
 DIIS: error= 7.65D-06 at cycle  10 NSaved=  10.
 NSaved=10 IEnMin=10 EnMin= -527.225069719938     IErMin=10 ErrMin= 7.65D-06
 ErrMax= 7.65D-06  0.00D+00 EMaxC= 1.00D-01 BMatC= 7.51D-09 BMatP= 1.89D-08
 IDIUse=1 WtCom= 1.00D+00 WtEn= 0.00D+00
 Coeff-Com: -0.227D-03 0.246D-02 0.885D-04-0.172D-01-0.611D-02 0.722D-01
 Coeff-Com:  0.718D-03-0.287D+00 0.939D-01 0.114D+01
 Coeff:     -0.227D-03 0.246D-02 0.885D-04-0.172D-01-0.611D-02 0.722D-01
 Coeff:      0.718D-03-0.287D+00 0.939D-01 0.114D+01
 Gap=     0.457 Goal=   None    Shift=    0.000
 RMSDP=1.24D-06 MaxDP=2.99D-05 DE=-1.03D-07 OVMax= 1.66D-04

 Cycle  11  Pass 1  IDiag  1:
 E= -527.225069764831     Delta-E=       -0.000000044893 Rises=F Damp=F
 DIIS: error= 4.48D-06 at cycle  11 NSaved=  11.
 NSaved=11 IEnMin=11 EnMin= -527.225069764831     IErMin=11 ErrMin= 4.48D-06
 ErrMax= 4.48D-06  0.00D+00 EMaxC= 1.00D-01 BMatC= 3.09D-09 BMatP= 7.51D-09
 IDIUse=1 WtCom= 1.00D+00 WtEn= 0.00D+00
 Coeff-Com: -0.936D-04 0.967D-04 0.871D-03 0.194D-02-0.746D-02-0.118D-01
 Coeff-Com:  0.311D-01 0.112D+00-0.621D+00 0.418D-02 0.149D+01
 Coeff:     -0.936D-04 0.967D-04 0.871D-03 0.194D-02-0.746D-02-0.118D-01
 Coeff:      0.311D-01 0.112D+00-0.621D+00 0.418D-02 0.149D+01
 Gap=     0.457 Goal=   None    Shift=    0.000
 RMSDP=1.28D-06 MaxDP=3.19D-05 DE=-4.49D-08 OVMax= 1.77D-04

 Cycle  12  Pass 1  IDiag  1:
 E= -527.225069790338     Delta-E=       -0.000000025507 Rises=F Damp=F
 DIIS: error= 1.85D-06 at cycle  12 NSaved=  12.
 NSaved=12 IEnMin=12 EnMin= -527.225069790338     IErMin=12 ErrMin= 1.85D-06
 ErrMax= 1.85D-06  0.00D+00 EMaxC= 1.00D-01 BMatC= 6.47D-10 BMatP= 3.09D-09
 IDIUse=1 WtCom= 1.00D+00 WtEn= 0.00D+00
 Coeff-Com:  0.829D-04-0.773D-03-0.339D-03 0.585D-02 0.341D-03-0.174D-01
 Coeff-Com: -0.586D-02 0.829D-01 0.137D-01-0.327D+00-0.112D+00 0.136D+01
 Coeff:      0.829D-04-0.773D-03-0.339D-03 0.585D-02 0.341D-03-0.174D-01
 Coeff:     -0.586D-02 0.829D-01 0.137D-01-0.327D+00-0.112D+00 0.136D+01
 Gap=     0.457 Goal=   None    Shift=    0.000
 RMSDP=6.20D-07 MaxDP=1.53D-05 DE=-2.55D-08 OVMax= 8.62D-05

 Cycle  13  Pass 1  IDiag  1:
 E= -527.225069795426     Delta-E=       -0.000000005088 Rises=F Damp=F
 DIIS: error= 7.44D-07 at cycle  13 NSaved=  13.
 NSaved=13 IEnMin=13 EnMin= -527.225069795426     IErMin=13 ErrMin= 7.44D-07
 ErrMax= 7.44D-07  0.00D+00 EMaxC= 1.00D-01 BMatC= 1.28D-10 BMatP= 6.47D-10
 IDIUse=1 WtCom= 1.00D+00 WtEn= 0.00D+00
 Coeff-Com:  0.380D-04-0.158D-03-0.303D-03 0.862D-03 0.108D-02 0.162D-03
 Coeff-Com: -0.814D-02-0.805D-02 0.135D+00-0.637D-01-0.339D+00 0.231D+00
 Coeff-Com:  0.105D+01
 Coeff:      0.380D-04-0.158D-03-0.303D-03 0.862D-03 0.108D-02 0.162D-03
 Coeff:     -0.814D-02-0.805D-02 0.135D+00-0.637D-01-0.339D+00 0.231D+00
 Coeff:      0.105D+01
 Gap=     0.457 Goal=   None    Shift=    0.000
 RMSDP=2.24D-07 MaxDP=6.21D-06 DE=-5.09D-09 OVMax= 3.03D-05

 Cycle  14  Pass 1  IDiag  1:
 E= -527.225069796108     Delta-E=       -0.000000000681 Rises=F Damp=F
 DIIS: error= 3.78D-07 at cycle  14 NSaved=  14.
 NSaved=14 IEnMin=14 EnMin= -527.225069796108     IErMin=14 ErrMin= 3.78D-07
 ErrMax= 3.78D-07  0.00D+00 EMaxC= 1.00D-01 BMatC= 2.01D-11 BMatP= 1.28D-10
 IDIUse=1 WtCom= 1.00D+00 WtEn= 0.00D+00
 Coeff-Com: -0.184D-04 0.185D-03 0.631D-04-0.134D-02-0.234D-03 0.442D-02
 Coeff-Com:  0.144D-02-0.216D-01 0.380D-03 0.782D-01 0.254D-01-0.335D+00
 Coeff-Com:  0.325D-01 0.122D+01
 Coeff:     -0.184D-04 0.185D-03 0.631D-04-0.134D-02-0.234D-03 0.442D-02
 Coeff:      0.144D-02-0.216D-01 0.380D-03 0.782D-01 0.254D-01-0.335D+00
 Coeff:      0.325D-01 0.122D+01
 Gap=     0.457 Goal=   None    Shift=    0.000
 RMSDP=8.97D-08 MaxDP=2.92D-06 DE=-6.81D-10 OVMax= 1.17D-05

 Cycle  15  Pass 1  IDiag  1:
 E= -527.225069796211     Delta-E=       -0.000000000103 Rises=F Damp=F
 DIIS: error= 1.64D-07 at cycle  15 NSaved=  15.
 NSaved=15 IEnMin=15 EnMin= -527.225069796211     IErMin=15 ErrMin= 1.64D-07
 ErrMax= 1.64D-07  0.00D+00 EMaxC= 1.00D-01 BMatC= 2.70D-12 BMatP= 2.01D-11
 IDIUse=1 WtCom= 1.00D+00 WtEn= 0.00D+00
 Coeff-Com:  0.477D-06-0.275D-04 0.138D-04 0.208D-03 0.452D-05-0.124D-02
 Coeff-Com:  0.879D-03 0.628D-02-0.147D-01-0.153D-01 0.330D-01 0.642D-01
 Coeff-Com: -0.123D+00-0.342D+00 0.139D+01
 Coeff:      0.477D-06-0.275D-04 0.138D-04 0.208D-03 0.452D-05-0.124D-02
 Coeff:      0.879D-03 0.628D-02-0.147D-01-0.153D-01 0.330D-01 0.642D-01
 Coeff:     -0.123D+00-0.342D+00 0.139D+01
 Gap=     0.457 Goal=   None    Shift=    0.000
 RMSDP=2.69D-08 MaxDP=8.28D-07 DE=-1.03D-10 OVMax= 2.86D-06

 Cycle  16  Pass 1  IDiag  1:
 E= -527.225069796229     Delta-E=       -0.000000000018 Rises=F Damp=F
 DIIS: error= 1.25D-07 at cycle  16 NSaved=  16.
 NSaved=16 IEnMin=16 EnMin= -527.225069796229     IErMin=16 ErrMin= 1.25D-07
 ErrMax= 1.25D-07  0.00D+00 EMaxC= 1.00D-01 BMatC= 8.62D-13 BMatP= 2.70D-12
 IDIUse=1 WtCom= 1.00D+00 WtEn= 0.00D+00
 Coeff-Com:  0.227D-05-0.165D-04-0.364D-05 0.933D-04 0.842D-04-0.339D-03
 Coeff-Com: -0.379D-03 0.122D-02 0.461D-02-0.756D-02-0.149D-01 0.357D-01
 Coeff-Com:  0.370D-01-0.103D+00-0.463D+00 0.151D+01
 Coeff:      0.227D-05-0.165D-04-0.364D-05 0.933D-04 0.842D-04-0.339D-03
 Coeff:     -0.379D-03 0.122D-02 0.461D-02-0.756D-02-0.149D-01 0.357D-01
 Coeff:      0.370D-01-0.103D+00-0.463D+00 0.151D+01
 Gap=     0.457 Goal=   None    Shift=    0.000
 RMSDP=1.70D-08 MaxDP=4.35D-07 DE=-1.84D-11 OVMax= 1.99D-06

 Cycle  17  Pass 1  IDiag  1:
 E= -527.225069796234     Delta-E=       -0.000000000005 Rises=F Damp=F
 DIIS: error= 8.72D-08 at cycle  17 NSaved=  17.
 NSaved=17 IEnMin=17 EnMin= -527.225069796234     IErMin=17 ErrMin= 8.72D-08
 ErrMax= 8.72D-08  0.00D+00 EMaxC= 1.00D-01 BMatC= 3.13D-13 BMatP= 8.62D-13
 IDIUse=1 WtCom= 1.00D+00 WtEn= 0.00D+00
 Coeff-Com: -0.461D-06 0.124D-04 0.179D-07-0.111D-03 0.341D-04 0.442D-03
 Coeff-Com: -0.235D-03-0.244D-02 0.517D-02 0.598D-02-0.118D-01-0.242D-01
 Coeff-Com:  0.439D-01 0.118D+00-0.490D+00-0.470D-01 0.140D+01
 Coeff:     -0.461D-06 0.124D-04 0.179D-07-0.111D-03 0.341D-04 0.442D-03
 Coeff:     -0.235D-03-0.244D-02 0.517D-02 0.598D-02-0.118D-01-0.242D-01
 Coeff:      0.439D-01 0.118D+00-0.490D+00-0.470D-01 0.140D+01
 Gap=     0.457 Goal=   None    Shift=    0.000
 RMSDP=1.38D-08 MaxDP=3.38D-07 DE=-5.00D-12 OVMax= 1.72D-06

 Cycle  18  Pass 1  IDiag  1:
 E= -527.225069796237     Delta-E=       -0.000000000003 Rises=F Damp=F
 DIIS: error= 4.49D-08 at cycle  18 NSaved=  18.
 NSaved=18 IEnMin=18 EnMin= -527.225069796237     IErMin=18 ErrMin= 4.49D-08
 ErrMax= 4.49D-08  0.00D+00 EMaxC= 1.00D-01 BMatC= 8.06D-14 BMatP= 3.13D-13
 IDIUse=1 WtCom= 1.00D+00 WtEn= 0.00D+00
 Coeff-Com: -0.907D-06 0.731D-05 0.277D-05-0.527D-04-0.106D-04 0.148D-03
 Coeff-Com:  0.148D-03-0.611D-03-0.152D-02 0.310D-02 0.500D-02-0.141D-01
 Coeff-Com: -0.986D-02 0.361D-01 0.154D+00-0.543D+00 0.519D-01 0.132D+01
 Coeff:     -0.907D-06 0.731D-05 0.277D-05-0.527D-04-0.106D-04 0.148D-03
 Coeff:      0.148D-03-0.611D-03-0.152D-02 0.310D-02 0.500D-02-0.141D-01
 Coeff:     -0.986D-02 0.361D-01 0.154D+00-0.543D+00 0.519D-01 0.132D+01
 Gap=     0.457 Goal=   None    Shift=    0.000
 RMSDP=8.23D-09 MaxDP=1.99D-07 DE=-2.50D-12 OVMax= 1.07D-06

 SCF Done:  E(RHF) =  -527.225069796     A.U. after   18 cycles
            NFock= 18  Conv=0.82D-08     -V/T= 2.0022
 KE= 5.260842481309D+02 PE=-1.961444270991D+03 EE= 5.512448578817D+02
 Leave Link  502 at Wed Sep 25 09:48:51 2024, MaxMem=   104857600 cpu:               4.5 elap:               4.5
 (Enter /usr/local/g16/l701.exe)
 ... and contract with generalized density number  0.
 Compute integral first derivatives.
 Leave Link  701 at Wed Sep 25 09:48:51 2024, MaxMem=   104857600 cpu:               0.1 elap:               0.1
 (Enter /usr/local/g16/l702.exe)
 L702 exits ... SP integral derivatives will be done elsewhere.
 Leave Link  702 at Wed Sep 25 09:48:51 2024, MaxMem=   104857600 cpu:               0.0 elap:               0.0
 (Enter /usr/local/g16/l703.exe)
 Integral derivatives from FoFJK, PRISM(SPDF).
 Compute integral first derivatives, UseDBF=F ICtDFT=           0.
 Calling FoFJK, ICntrl=      2127 FMM=F ISym2X=0 I1Cent= 0 IOpClX= 0 NMat=1 NMatS=1 NMatT=0.
 FoFJK:  IHMeth= 1 ICntrl=    2127 DoSepK=F KAlg= 0 I1Cent=           0 FoldK=F
 IRaf=         0 NMat=       1 IRICut=       1 DoRegI=T DoRafI=F ISym2E= 0 IDoP0=0 IntGTp=1.
 FoFCou: FMM=F IPFlag=           0 FMFlag=      100000 FMFlg1=         800
         NFxFlg=           0 DoJE=F BraDBF=F KetDBF=F FulRan=T
         wScrn=  0.000000 ICntrl=      2127 IOpCl=  0 I1Cent=           0 NGrid=           0
         NMat0=    1 NMatS0=      1 NMatT0=    0 NMatD0=    1 NMtDS0=    0 NMtDT0=    0
 Symmetry not used in FoFCou.
 Leave Link  703 at Wed Sep 25 09:48:55 2024, MaxMem=   104857600 cpu:               3.7 elap:               3.6
 (Enter /usr/local/g16/l716.exe)
 Dipole        = 9.10116821D-01-6.59639179D-01 1.36507108D+00
 ***** Axes restored to original set *****
 -------------------------------------------------------------------
 Center     Atomic                   Forces (Hartrees/Bohr)
 Number     Number              X              Y              Z
 -------------------------------------------------------------------
      1        6           0.025448780    0.044257203    0.006269321
      2        8          -0.012489929   -0.081240563   -0.006700439
      3        8          -0.059157646    0.037715814   -0.022518478
      4        1          -0.006038634    0.004981144   -0.004516531
      5        8           0.055417920   -0.001035713    0.017251752
      6        1          -0.000042027    0.001855696    0.011288026
      7        6          -0.130885745   -0.189544241    0.087942072
      8        8           0.086536163    0.153863466    0.004708013
      9        8           0.096184884    0.076603860    0.018141324
     10        1          -0.028413347   -0.020182774   -0.040081868
     11        8          -0.027871525   -0.019025978   -0.077498010
     12        1           0.001311108   -0.008247912    0.005714819
 -------------------------------------------------------------------
 Cartesian Forces:  Max     0.189544241 RMS     0.061452749
 Leave Link  716 at Wed Sep 25 09:48:55 2024, MaxMem=   104857600 cpu:               0.0 elap:               0.0
 (Enter /usr/local/g16/l103.exe)

 GradGradGradGradGradGradGradGradGradGradGradGradGradGradGradGradGradGrad
 Berny optimization.
 Using GEDIIS/GDIIS optimizer.
 FormGI is forming the generalized inverse of G from B-inverse, IUseBI=4.
 Internal  Forces:  Max     0.165420628 RMS     0.042096338
 Search for a local minimum.
 Step number   2 out of a maximum of   52
 All quantities printed in internal units (Hartrees-Bohrs-Radians)
 RMS Force = .42096D-01 SwitMx=.10000D-02 MixMth= 1
 Mixed Optimization -- RFO/linear search
 Update second derivatives using D2CorX and points    1    2
 DE= -9.92D-02 DEPred=-9.38D-02 R= 1.06D+00
 TightC=F SS=  1.41D+00  RLast= 3.54D-01 DXNew= 5.0454D-01 1.0611D+00
 Trust test= 1.06D+00 RLast= 3.54D-01 DXMaxT set to 5.05D-01
 ITU=  1  0
 Use linear search instead of GDIIS.
 Linear search step of   0.600 exceeds DXMaxT=   0.505 but not scaled.
 Quartic linear search produced a step of  2.00000.
 Iteration  1 RMS(Cart)=  0.14680400 RMS(Int)=  0.01910523
 Iteration  2 RMS(Cart)=  0.02292579 RMS(Int)=  0.00665974
 Iteration  3 RMS(Cart)=  0.00031477 RMS(Int)=  0.00665401
 Iteration  4 RMS(Cart)=  0.00000462 RMS(Int)=  0.00665401
 Iteration  5 RMS(Cart)=  0.00000005 RMS(Int)=  0.00665401
 ITry= 1 IFail=0 DXMaxC= 3.78D-01 DCOld= 1.00D+10 DXMaxT= 5.05D-01 DXLimC= 3.00D+00 Rises=F
 Variable       Old X    -DE/DX   Delta X   Delta X   Delta X     New X
                                 (Linear)    (Quad)   (Total)
    R1        2.31199  -0.08284  -0.13209   0.00000  -0.13454   2.17744
    R2        2.61984  -0.07389  -0.16493   0.00000  -0.16864   2.45120
    R3        2.62955  -0.05885  -0.14551   0.00000  -0.14551   2.48404
    R4        4.53157  -0.00406  -0.00556   0.00000  -0.00582   4.52575
    R5        1.80516  -0.00542  -0.01795   0.00000  -0.01876   1.78640
    R6        4.41434  -0.00277  -0.01818   0.00000  -0.01844   4.39590
    R7        1.80285  -0.01098  -0.02258   0.00000  -0.02258   1.78027
    R8        2.87558  -0.16542  -0.27139   0.00000  -0.26878   2.60681
    R9        2.63202  -0.06687  -0.14057   0.00000  -0.13733   2.49469
   R10        2.61655  -0.07325  -0.17151   0.00000  -0.17151   2.44504
   R11        1.72110   0.04131   0.08108   0.00000   0.08291   1.80401
   R12        1.80549  -0.00800  -0.01730   0.00000  -0.01730   1.78818
    A1        2.13785   0.01959   0.07898   0.00000   0.07227   2.21012
    A2        2.10825   0.01579   0.03167   0.00000   0.03491   2.14316
    A3        2.03707  -0.03539  -0.11069   0.00000  -0.10731   1.92976
    A4        2.37387  -0.00198   0.02095   0.00000   0.01878   2.39265
    A5        1.90193   0.00004  -0.01841   0.00000  -0.02772   1.87421
    A6        2.78135  -0.00009  -0.00209   0.00000   0.00553   2.78689
    A7        1.89725  -0.00315  -0.02777   0.00000  -0.02777   1.86949
    A8        1.68569   0.07912   0.30705   0.00000   0.30840   1.99409
    A9        2.32880  -0.01886  -0.00939   0.00000  -0.02941   2.29939
   A10        1.87051  -0.01582  -0.08024   0.00000  -0.09457   1.77595
   A11        2.38950  -0.03135  -0.13083   0.00000  -0.12446   2.26505
   A12        2.09886  -0.03574  -0.14299   0.00000  -0.14061   1.95825
   A13        2.55194  -0.01977  -0.04714   0.00000  -0.03460   2.51734
   A14        1.91209   0.00652   0.00190   0.00000   0.00190   1.91399
    D1       -0.28835  -0.00872  -0.04301   0.00000  -0.03655  -0.32490
    D2        2.85985  -0.00575  -0.02979   0.00000  -0.02262   2.83722
    D3       -0.00005   0.00194  -0.00011   0.00000   0.00664   0.00659
    D4        3.13518  -0.00074  -0.01282   0.00000  -0.00544   3.12975
    D5        1.34771  -0.00361  -0.01384   0.00000  -0.01327   1.33444
    D6       -1.78764  -0.00100  -0.00135   0.00000  -0.00191  -1.78955
    D7        0.16924  -0.02068  -0.10277   0.00000  -0.09681   0.07244
    D8       -0.90707   0.01374   0.04020   0.00000   0.04110  -0.86597
    D9        1.48889   0.01310   0.03671   0.00000   0.03401   1.52290
   D10        0.17365  -0.01760  -0.07285   0.00000  -0.08878   0.08487
[...]
 ! D12   D(8,7,9,10)            -0.0009         -DE/DX =    0.0                 !
 ! D13   D(11,7,9,10)          179.9993         -DE/DX =    0.0                 !
 ! D14   D(8,7,11,12)            0.0002         -DE/DX =    0.0                 !
 ! D15   D(9,7,11,12)         -180.0            -DE/DX =    0.0                 !
 ! D16   D(7,9,10,2)             0.0792         -DE/DX =    0.0                 !
 --------------------------------------------------------------------------------
 GradGradGradGradGradGradGradGradGradGradGradGradGradGradGradGradGradGrad

 Leave Link  103 at Wed Sep 25 09:54:22 2024, MaxMem=   104857600 cpu:               0.0 elap:               0.0
 (Enter /usr/local/g16/l9999.exe)

 ----------------------------------------------------------------------

 Electric dipole moment (input orientation):
 (Debye = 10**-18 statcoulomb cm , SI units = C m)
                  (au)            (Debye)         (10**-30 SI)
   Tot        0.202681D-02      0.515162D-02      0.171840D-01
   x         -0.568684D-03     -0.144545D-02     -0.482150D-02
   y         -0.762561D-04     -0.193824D-03     -0.646526D-03
   z          0.194389D-02      0.494088D-02      0.164810D-01

 Dipole polarizability, Alpha (input orientation).
 (esu units = cm**3 , SI units = C**2 m**2 J**-1)
 Alpha(0;0):
               (au)            (10**-24 esu)      (10**-40 SI)
   iso        0.356758D+02      0.528661D+01      0.588215D+01
   aniso      0.230320D+02      0.341299D+01      0.379746D+01
   xx         0.420269D+02      0.622774D+01      0.692930D+01
   yx         0.232145D+01      0.344003D+00      0.382755D+00
   yy         0.399164D+02      0.591500D+01      0.658132D+01
   zx         0.668362D+01      0.990410D+00      0.110198D+01
   zy         0.644316D+01      0.954778D+00      0.106233D+01
   zz         0.250843D+02      0.371710D+01      0.413584D+01

 First dipole hyperpolarizability, Beta (input orientation).
 ||, _|_  parallel and perpendicular components, (z) with respect to z axis,
 vector components x,y,z.  Values do not include the 1/n! factor of 1/2.
 (esu units = statvolt**-1 cm**4 , SI units = C**3 m**3 J**-2)
 Beta(0;0,0):
               (au)            (10**-30 esu)      (10**-50 SI)
   || (z)    -0.208642D+00     -0.180251D-02     -0.668982D-03
   _|_(z)    -0.695474D-01     -0.600835D-03     -0.222994D-03
   x          0.194878D+00      0.168359D-02      0.624850D-03
   y          0.341127D+00      0.294707D-02      0.109378D-02
   z         -0.104321D+01     -0.901253D-02     -0.334491D-02
   ||         0.222947D+00      0.192609D-02      0.714849D-03
   xxx        0.721718D-01      0.623508D-03      0.231409D-03
   xxy        0.258298D+00      0.223149D-02      0.828195D-03
   yxy        0.298217D+00      0.257636D-02      0.956190D-03
   yyy        0.117369D+00      0.101398D-02      0.376327D-03
   xxz       -0.685076D-01     -0.591852D-03     -0.219660D-03
   yxz       -0.301438D+00     -0.260419D-02     -0.966519D-03
   yyz       -0.432409D-02     -0.373567D-04     -0.138646D-04
   zxz       -0.305429D+00     -0.263867D-02     -0.979316D-03
   zyz       -0.261958D+00     -0.226311D-02     -0.839931D-03
   zzz       -0.274905D+00     -0.237497D-02     -0.881446D-03

 ----------------------------------------------------------------------

 Dipole orientation:
     6         -0.82141885          0.96268844         -1.68374082
     8         -0.88709140          3.15768491         -1.13386581
     8          1.19322742         -0.36281306         -2.04437911
     1          2.66435963          0.66975816         -1.80571399
     8         -2.85860497         -0.40412416         -1.99609542
     1         -4.27985621          0.63760736         -1.71491335
     6          5.09510252          5.09501363         -0.66912746
     8          5.16002829          2.90609095         -1.24284756
     8          3.08089175          6.42459934         -0.32100275
     1          1.60854986          5.40134858         -0.59031607
     8          7.13306593          6.45011132         -0.31323527
     1          8.55403028          5.40582566         -0.58622999

 Electric dipole moment (dipole orientation):
 (Debye = 10**-18 statcoulomb cm , SI units = C m)
                  (au)            (Debye)         (10**-30 SI)
   Tot        0.202681D-02      0.515162D-02      0.171840D-01
   x          0.000000D+00      0.000000D+00      0.000000D+00
   y          0.000000D+00      0.000000D+00      0.000000D+00
   z          0.202681D-02      0.515162D-02      0.171840D-01

 Dipole polarizability, Alpha (dipole orientation).
 (esu units = cm**3 , SI units = C**2 m**2 J**-1)
 Alpha(0;0):
               (au)            (10**-24 esu)      (10**-40 SI)
   iso        0.356758D+02      0.528661D+01      0.588215D+01
   aniso      0.230320D+02      0.341299D+01      0.379746D+01
   xx         0.442494D+02      0.655708D+01      0.729574D+01
   yx         0.409560D+01      0.606905D+00      0.675273D+00
   yy         0.403522D+02      0.597958D+01      0.665318D+01
   zx         0.885051D+00      0.131151D+00      0.145925D+00
   zy         0.487847D+01      0.722915D+00      0.804351D+00
   zz         0.224259D+02      0.332318D+01      0.369754D+01

 First dipole hyperpolarizability, Beta (dipole orientation).
 ||, _|_  parallel and perpendicular components, (z) with respect to z axis,
 vector components x,y,z.  Values do not include the 1/n! factor of 1/2.
 (esu units = statvolt**-1 cm**4 , SI units = C**3 m**3 J**-2)
 Beta(0;0,0):
               (au)            (10**-30 esu)      (10**-50 SI)
   || (z)    -0.213610D+00     -0.184542D-02     -0.684911D-03
   _|_(z)    -0.712033D-01     -0.615141D-03     -0.228304D-03
   x         -0.107497D+00     -0.928688D-03     -0.344674D-03
   y          0.300581D+00      0.259678D-02      0.963770D-03
   z         -0.106805D+01     -0.922712D-02     -0.342455D-02
   ||         0.222947D+00      0.192609D-02      0.714849D-03
   xxx       -0.654813D-01     -0.565707D-03     -0.209957D-03
   xxy        0.426170D-01      0.368177D-03      0.136645D-03
   yxy        0.254494D+00      0.219863D-02      0.816001D-03
   yyy        0.111083D+00      0.959669D-03      0.356172D-03
   xxz       -0.238332D+00     -0.205901D-02     -0.764180D-03
   yxz       -0.414083D+00     -0.357735D-02     -0.132770D-02
   yyz       -0.100743D+00     -0.870343D-03     -0.323019D-03
   zxz       -0.224845D+00     -0.194249D-02     -0.720935D-03
   zyz       -0.535063D-01     -0.462252D-03     -0.171560D-03
   zzz       -0.169408D-01     -0.146356D-03     -0.543185D-04

 ----------------------------------------------------------------------
 1\1\GINC-SV1-C724\Freq\RHF\6-311G(d,p)\C2H4O6\LME\25-Sep-2024\0\\#P Ge
 om=AllCheck Guess=TCheck SCRF=Check GenChk RHF/6-311G(d,p) Freq\\Title
  Card Required\\0,1\C,-0.1699565665,0.5449296298,-0.9573440926\O,-0.29
 1215347,1.6948719044,-0.644315332\O,0.9106332306,-0.1545532472,-0.8676
 399255\H,1.6194586771,0.3825184848,-0.5075224142\O,-1.1543934589,-0.16
 58060102,-1.4455619789\H,-1.92098403,0.3835106644,-1.4931366455\C,2.67
 26871563,2.6930105839,0.5183446093\O,2.7970897726,1.5467569733,0.19322
 38028\O,1.5941648858,3.3949010656,0.4224354065\H,0.8892490173,2.863371
 5945,0.0467689731\O,3.6510879069,3.3966824028,1.0285412999\H,4.4163244
 06,2.8458529239,1.080177847\\Version=ES64L-G16RevA.03\State=1-A\HF=-52
 7.4885126\RMSD=2.148e-09\RMSF=6.144e-05\ZeroPoint=0.089631\Thermal=0.0
 977396\Dipole=-0.0005687,-0.0000763,0.0019439\DipoleDeriv=2.2574593,-0
 .0264793,0.4269169,0.0899589,2.2706629,0.5004177,0.4608534,0.4664735,0
 .96968,-0.9191813,-0.0401494,-0.1247582,-0.1532459,-1.5577684,-0.35726
 22,-0.1580942,-0.3241149,-0.665266,-1.3255583,0.2409649,-0.1737909,0.1
 835743,-0.776125,-0.0498349,-0.1898579,-0.0334525,-0.5107461,0.6762764
 ,0.2491668,0.1675997,0.2498542,0.4954491,0.1151608,0.1673798,0.115006,
 0.4397505,-1.1354331,-0.4529266,-0.3231125,-0.408491,-0.7001342,-0.184
 0979,-0.3083952,-0.1955052,-0.6148449,0.4463658,0.0292301,0.0269383,0.
 0380497,0.2671941,-0.0240686,0.0293385,-0.0265308,0.3823923,2.2459476,
 -0.0374414,0.441794,0.0784671,2.2601657,0.5136651,0.479558,0.4812695,0
 .991958,-0.9174504,-0.0366504,-0.1256676,-0.1494333,-1.5512238,-0.3662
 242,-0.1617066,-0.3345504,-0.6738607,-1.3211144,0.242915,-0.1788229,0.
 186428,-0.7771102,-0.0475013,-0.1978417,-0.0314573,-0.5139034,0.674968
 8,0.2485168,0.1687186,0.2490492,0.4961572,0.1133454,0.1690695,0.113047
 1,0.4397079,-1.1280825,-0.446363,-0.3335089,-0.4020285,-0.6950025,-0.1
 88623,-0.320969,-0.2027025,-0.6272981,0.4458021,0.0292165,0.0276936,0.
 0378174,0.2677351,-0.0249771,0.0306653,-0.0274824,0.3824306\Polar=42.0
 268984,2.3214452,39.9163762,6.6836178,6.4431619,25.0842588\PolarDeriv=
 0.9862107,-0.4621319,0.5423251,0.2255926,0.4233406,0.282048,-0.0207741
 ,-0.7563239,-1.3057116,-0.1108374,-0.1442743,-0.1549863,0.4021235,0.08
 29636,0.5535629,-0.0740893,-1.1048114,-0.902442,-1.033665,2.392623,-0.
 5295604,0.5464912,-0.0421547,-0.1790228,3.3555255,0.8782838,7.3513073,
 1.032827,1.5409385,1.5102905,0.870726,0.4136071,0.7709508,0.0474226,2.
 4290995,1.5590477,-0.6186291,-2.5500188,0.3244927,-1.3092142,-0.508169
 1,0.0295079,-3.7464552,-0.2002035,-5.508981,-1.2009897,-1.297913,-1.15
 33112,-1.6964879,-0.7067106,-0.9744358,-0.0001861,-1.503806,-0.5594629
 ,4.4110932,1.6780164,1.1976691,1.6245793,0.8728891,0.6033158,3.2305364
 ,2.3900787,1.885599,1.4688102,1.2459486,0.7966641,1.904943,1.0363049,0
 .9195041,1.4186052,0.5749142,0.7071403,0.5893415,-1.8650734,-1.1729492
 ,-0.1618695,-0.4682274,-0.4007674,-4.1029706,-0.4688407,-4.5848902,-1.
 0466705,-1.096024,-0.7787755,-0.7842735,-0.1976858,-1.0474732,-0.74737
 82,-1.4124772,-1.2982003,-5.4352683,0.7376232,-0.3448217,-0.9932537,0.
 0068264,-0.1596853,2.6098459,-1.357591,0.9523038,0.6580759,-0.1788537,
 0.2035594,-0.0962522,0.0570594,0.0189281,-1.1439634,0.3024237,-0.44170
 5,-0.9897432,0.459953,-0.5339147,-0.2121371,-0.4247687,-0.2850375,0.03
 37683,0.7623034,1.3142914,0.1002887,0.146816,0.1379622,-0.4141991,-0.0
 820047,-0.5729133,0.0613634,1.0874239,0.9190814,1.0542971,-2.3836109,0
 .5347765,-0.5707121,0.0487426,0.1837333,-3.3373776,-0.8558341,-7.31120
 68,-1.0464652,-1.5822471,-1.5334104,-0.8951179,-0.4202935,-0.7997169,-
 0.0559395,-2.4378324,-1.627687,0.5982027,2.5389675,-0.3300667,1.312307
 2,0.4987975,-0.0287013,3.7029823,0.1737489,5.4862327,1.2213856,1.30714
 79,1.1816362,1.7574573,0.7269556,0.9991515,0.0409246,1.5236033,0.58372
 12,-4.3747971,-1.6556279,-1.1864124,-1.6516367,-0.8748114,-0.6155444,-
 3.1966422,-2.3715507,-1.8670441,-1.4748112,-1.2570674,-0.8013882,-1.96
 42486,-1.0532259,-0.9355041,-1.4484982,-0.5809741,-0.7622961,-0.591154
 8,1.8606837,1.1530781,0.155818,0.4782672,0.3913888,4.0692921,0.4399975
 ,4.5471776,1.0847341,1.1241337,0.8129217,0.8062673,0.2039,1.0864792,0.
 7573441,1.4298321,1.3605983,5.4041124,-0.7514038,0.3453836,1.034035,-0
 .010732,0.1787649,-2.5977309,1.3659316,-0.9590782,-0.6863476,0.1913947
 ,-0.2211625,0.1090619,-0.0608701,-0.0185332,1.1443949,-0.3073956,0.462
 2043\HyperPolar=0.0721718,0.2582976,0.2982166,0.1173689,-0.0685076,-0.
 3014381,-0.0043241,-0.3054291,-0.2619576,-0.2749053\Quadrupole=9.38660
 04,-9.2112267,-0.1753738,1.5303738,3.2786673,-2.2801612\PG=C01 [X(C2H4
 O6)]\NImag=0\\0.86492514,-0.09043633,1.11701087,0.12984218,0.22114289,
 0.40322362,-0.15627510,0.06201847,0.00719297,0.15340811,0.05366284,-0.
 70203207,-0.16211428,-0.07094638,0.86369169,0.00466425,-0.15975873,-0.
 16183866,0.00728367,0.22546895,0.12103922,-0.33963099,0.13280925,-0.02
 814010,-0.00777813,0.07127970,0.00841592,0.74969413,0.11659007,-0.2384
 2617,-0.01098979,0.07634882,-0.06871063,-0.01134191,0.00981536,0.50860
 810,-0.03307065,-0.00645104,-0.10570758,0.00992722,-0.01273262,0.03821
 247,0.19658980,0.13978359,0.15252168,-0.05703753,-0.00910637,-0.018790
 48,0.00868276,-0.01398003,-0.00038826,-0.28641267,-0.16700015,-0.12349
 248,0.33365763,0.01505059,0.04006694,0.01614811,-0.00134175,-0.0120813
 3,-0.00248478,-0.21066032,-0.22614725,-0.11967333,0.17738954,0.2020302
 4,-0.01159103,0.00953119,0.00020906,0.00344738,-0.00607410,-0.00598379
 ,-0.13661146,-0.10753388,-0.09505386,0.13845201,0.10169194,0.09807148,
 -0.27827309,-0.10513588,-0.08340178,0.00983337,-0.04823480,-0.02229981
 ,-0.09842286,-0.02515772,-0.03972585,0.00285041,0.01117619,0.00313512,
 0.76344542,-0.07396326,-0.22079426,-0.05928450,-0.06321135,-0.07828433
 ,-0.05256887,0.02378209,0.02792339,0.00990388,0.00352120,-0.00396292,-
 0.00141313,-0.12665669,0.52625253,-0.07399822,-0.06796158,-0.13354858,
 -0.02681334,-0.04838286,0.01562500,-0.02495497,-0.00371471,0.00898844,
 0.00076596,0.00073071,0.00433711,0.16066386,0.10882776,0.12610812,-0.0
 4649959,0.02527833,-0.00570017,0.00831541,0.00688503,0.00582563,-0.001
 13780,-0.00522088,-0.00288780,-0.00094650,0.00120442,-0.00051131,-0.39
 814335,0.23344390,-0.03608606,0.43879887,-0.02766700,0.02829873,0.0004
 1789,0.00169884,-0.00643599,0.00008559,-0.00683087,-0.00267944,-0.0037
 8802,-0.00054711,0.00146292,-0.00037128,0.29430735,-0.25579647,0.00934
 306,-0.26072192,0.23541290,-0.02166812,0.01514710,-0.00006665,0.004258
 84,0.00152776,-0.00350693,-0.00337210,-0.00333738,0.00162901,-0.001044
 40,0.00010886,0.00194990,-0.01772798,-0.00758891,-0.02253926,0.0397245
 7,-0.00554642,0.02270591,0.00751497,-0.02666441,-0.00636007,0.00636648
 ,0.02134306,0.00880369,-0.01335717,0.00349453,-0.00254308,0.01096977,0
 .00255336,0.00377431,0.00266908,0.00659982,0.00277479,-0.00139204,-0.0
 0055711,-0.00060049,0.86091786,-0.02663113,0.02053102,-0.00168855,0.00
 331635,-0.02203085,-0.00529533,0.02380258,0.00062202,0.00711329,-0.020
 89691,-0.02079173,-0.01258484,0.00528427,-0.00297505,0.00063475,-0.000
 27670,0.00059605,0.00005598,-0.09484049,1.11179149,-0.00656745,-0.0017
 3491,-0.00100723,0.00337333,-0.00018197,-0.00069247,0.00377417,0.00139
 898,0.00094980,-0.00353409,-0.00595174,-0.00242074,0.00249962,0.001050
 79,0.00083181,-0.00053648,-0.00002253,-0.00000139,0.13512076,0.2281205
 1,0.41216723,0.00638902,0.00335931,0.00325386,-0.00510839,-0.00176172,
 -0.00256384,-0.00551726,-0.00795683,-0.00545890,-0.00931381,0.00340448
 ,0.00068281,-0.00328077,-0.00176717,-0.00142986,0.00057864,0.00007595,
 0.00023640,-0.15635122,0.06357184,0.00789583,0.15325913,0.02133779,-0.
 02200337,-0.00020294,-0.00174163,0.01642228,0.00389807,-0.02891901,-0.
 00314450,-0.01071338,0.01585219,0.01018661,0.01014398,-0.00536662,0.00
 284420,-0.00062474,0.00008415,-0.00057752,-0.00009554,0.05524647,-0.69
 817610,-0.16776661,-0.07320665,0.85841514,0.00891551,-0.00537345,-0.00
 073207,-0.00258815,0.00398298,0.00248788,-0.01197257,-0.00477798,0.000
 09994,0.00456541,0.00663798,-0.00449670,-0.00260894,0.00038189,-0.0006
 3670,0.00024298,-0.00010312,-0.00014309,0.00527132,-0.16535861,-0.1655
 7441,0.00682267,0.23316759,0.12645384,-0.01328954,0.02379794,0.0036096
 2,-0.00551696,-0.02887504,-0.01183754,0.01206779,-0.00413267,0.0019813
 9,-0.00906971,-0.00501865,-0.00386905,-0.00163287,-0.00640700,-0.00230
 787,0.00118074,0.00050116,0.00051902,-0.33844340,0.13332800,-0.0297376
 9,-0.00784034,0.07127324,0.00861169,0.74466591,0.00354648,0.00058671,0
 .00133223,-0.00793968,-0.00308234,-0.00475562,-0.00416488,-0.00071106,
 -0.00158265,0.00477826,0.00391713,0.00288904,-0.00206050,-0.00109219,-
 0.00082793,0.00050682,-0.00015319,0.00013674,0.11721250,-0.23846580,-0
 .01096445,0.07628975,-0.06857475,-0.01156890,0.00539116,0.50506492,-0.
 00259420,0.00722475,0.00089555,-0.00543931,-0.01081036,0.00010041,0.00
 203068,-0.00159197,0.00067226,-0.00086313,0.00006170,-0.00119457,-0.00
 105031,-0.00212805,-0.00114739,0.00053833,0.00014027,0.00005132,-0.034
 83781,-0.00620555,-0.10674684,0.01020219,-0.01306644,0.03815807,0.2047
 0727,0.14358606,0.16102120,0.01090613,-0.02093890,-0.00338029,-0.00923
 813,0.01590289,0.00440466,-0.00907481,0.00476401,-0.00083072,0.0050452
 5,0.00386130,0.00221590,0.00287885,0.00650405,0.00248985,-0.00128005,-
 0.00034958,-0.00050049,-0.05659148,-0.00881223,-0.01963266,0.00861222,
 -0.01395250,-0.00034126,-0.28351515,-0.16396778,-0.12823140,0.33034506
 ,0.00248568,-0.02086180,-0.00573392,0.00346834,0.01026058,0.00646184,-
 0.00502085,0.00391518,0.00007434,0.00385533,-0.00061896,0.00047433,0.0
 0385074,0.00601816,0.00259066,-0.00144013,-0.00005035,-0.00045794,0.01
 505550,0.03980207,0.01683540,-0.00138131,-0.01198920,-0.00257423,-0.20
 721907,-0.22275047,-0.12379537,0.17400212,0.19878916,0.00377353,-0.012
 49306,-0.00226166,0.00062619,0.01008630,-0.00464218,-0.00385936,0.0028
 4852,-0.00118746,0.00223256,0.00048001,0.00220784,0.00173672,0.0034224
 8,0.00244449,-0.00084770,-0.00015919,-0.00013945,-0.01192709,0.0096330
 9,0.00004316,0.00359736,-0.00619269,-0.00598719,-0.14204636,-0.1110030
 2,-0.10141922,0.14409247,0.10520612,0.10464204,0.00266054,0.00529960,0
 .00239477,-0.00326607,-0.00536069,-0.00255149,-0.00160782,-0.00205236,
 -0.00101892,0.00284851,0.00381429,0.00172497,-0.00256692,-0.00211235,-
 0.00137606,0.00064205,0.00009750,0.00022036,-0.27619014,-0.10306336,-0
 .08662083,0.01038780,-0.04738560,-0.02298069,-0.09753924,-0.02445375,-
 0.04146936,0.00283538,0.01113217,0.00315941,0.75853751,0.00657324,-0.0
 0297268,0.00099484,-0.00174266,0.00286022,0.00038953,-0.00638706,-0.00
 109451,-0.00207036,0.00647518,0.00598055,0.00340221,-0.00210045,-0.000
 03273,-0.00062482,0.00026381,-0.00009925,0.00005659,-0.07212196,-0.219
 01466,-0.06116632,-0.06225578,-0.07693630,-0.05447886,0.02410148,0.027
 83949,0.01051137,0.00351194,-0.00398137,-0.00143608,-0.13048695,0.5239
 2283,0.00292044,0.00067018,0.00083852,-0.00151218,-0.00066874,-0.00065
 995,-0.00244410,-0.00088917,-0.00118333,0.00262333,0.00273322,0.002530
 91,-0.00145205,-0.00066373,-0.00050271,0.00028445,0.00001030,0.0000390
 4,-0.07686395,-0.07028047,-0.13728494,-0.02768128,-0.05013107,0.013715
 50,-0.02613726,-0.00378989,0.00815614,0.00079911,0.00079587,0.00437500
 ,0.16794219,0.11152290,0.13325340,-0.00138994,-0.00028100,-0.00052051,
 0.00057666,0.00008513,0.00024312,0.00117759,0.00050781,0.00052998,-0.0
 0127411,-0.00143345,-0.00084965,0.00064272,0.00026675,0.00027191,-0.00
 011638,-0.00000721,-0.00004561,-0.04611271,0.02521779,-0.00603452,0.00
 818499,0.00677816,0.00606203,-0.00106725,-0.00513838,-0.00299297,-0.00
 092328,0.00121147,-0.00053772,-0.39674159,0.23416922,-0.03847870,0.437
 04330,-0.00054897,0.00059608,-0.00002199,0.00007263,-0.00057722,-0.000
 09875,0.00049400,-0.00015514,0.00013628,-0.00034112,-0.00004221,-0.000
 15547,0.00009411,-0.00010033,0.00000969,-0.00000685,0.00002160,-0.0000
 0685,-0.02732128,0.02811154,0.00038286,0.00162814,-0.00646649,0.000064
 72,-0.00674055,-0.00257844,-0.00392641,-0.00052531,0.00146699,-0.00039
 249,0.29457148,-0.25647159,0.01069061,-0.26137629,0.23619521,-0.000626
 25,0.00005666,-0.00000432,0.00024338,-0.00010107,-0.00014100,0.0005441
 0,0.00014569,0.00005862,-0.00052644,-0.00048269,-0.00015664,0.00023140
 ,0.00006040,0.00003968,-0.00004644,-0.00000656,0.00002158,-0.02261236,
 0.01585573,-0.00026397,0.00444274,0.00158377,-0.00334509,-0.00349324,-
 0.00345162,0.00145308,-0.00108517,0.00012290,0.00192463,-0.01942437,-0
 .00710100,-0.02327759,0.04235264,-0.00668221,0.02369101\\0.00000931,-0
 .00002727,0.00000045,-0.00002727,-0.00003460,0.00004464,0.00000470,-0.
 00007182,0.00008224,-0.00000858,0.00011753,-0.00012194,0.00001332,0.00
 003875,0.00001844,-0.00001696,-0.00000294,-0.00000267,-0.00000903,0.00
 002356,-0.00002476,0.00001239,-0.00004999,0.00004718,-0.00005362,-0.00
 002457,0.00016278,0.00004243,0.00004146,-0.00021804,0.00002294,-0.0000
 1453,0.00000564,0.00001037,0.00000442,0.00000604\\\@


 SIGN SEEN IN A RESTAURANT-
 WE RESERVE THE RIGHT TO SERVE REFUSE TO ANYONE.
 Job cpu time:       0 days  0 hours  0 minutes 56.1 seconds.
 Elapsed time:       0 days  0 hours  0 minutes 56.0 seconds.
 File lengths (MBytes):  RWF=     44 Int=      0 D2E=      0 Chk=      3 Scr=      1
 Normal termination of Gaussian 16 at Wed Sep 25 09:54:22 2024.
