 Entering Gaussian System, Link 0=g16
 Input=carbonic_acid.chk
 Output=carbonic_acid.log
 Error opening AtFile: ды@▄jц
 Error termination via Lnk1e at Wed Sep 25 09:55:40 2024.
