[Molden Format]
[Molpro variables]
_NUMVAR=  1076.000000000000    
_AVOGAD= 0.6022140760000000E+24
_BOLTZ= 0.1380649000000000E-22
_CLIGHTSI=  299792458.0000000    
_JOULE= 0.4359744722207100E-17
_JPCAL=  4.184000000000000    
_PLANCK= 0.6626070150000000E-33
_BOHR= 0.5291772109030000E-10
_ECHARG= 0.1602176634000000E-18
_ENULL= 0.8854187812800001E-11
_MU= 0.1660539066600000E-26
_EMASS= 0.9109383701500001E-30
_AMU2AU=  1822.888486217313    
_CLIGHT=  29979245800.00000    
_EV= 0.3674932217565494E-01
_KJOULE= 0.3808798847133432E-03
_KJOULE/MOL= 0.3808798847133432E-03
_CM= 0.4556335252912009E-05
_CM-1= 0.4556335252912009E-05
_DEB2SI= 0.3335640951981520E-29
_KCAL= 0.1593601437640628E-02
_KCAL/MOL= 0.1593601437640628E-02
_KELVIN= 0.3166811563455608E-05
_HERTZ= 0.1519829846057038E-15
_HZ= 0.1519829846057038E-15
_TOA= 0.5291772109030000    
_TOANG= 0.5291772109030000    
_TORAD= 0.1745329251994330E-01
_TOCM=  219474.6313631965    
_TODEBYE=  2.541746473194078    
_TOE= 0.4803204712570263E-09
_TOEV=  27.21138624598803    
_TOHERTZ=  6579683920501656.    
_TOHZ=  6579683920501656.    
_TOK=  315775.0248040668    
_TOKCAL=  627.5094740630558    
_TOKELVIN=  315775.0248040668    
_TOKJ=  2625.499639479825    
_TOKJOULE=  2625.499639479825    
_TOKG= 0.1660539066600000E-26
_ANG=  1.889726124625770    
_ANGSTROM=  1.889726124625770    
_RPAREF=  0.000000000000000    
_RPADISS=  0.000000000000000    
_IGNORE_UNDEF=  2.000000000000000    
_STRICTCHECK=  0.000000000000000    
!SEWARD=  0.000000000000000    
!MULTI=  0.000000000000000    
!DFMULTI=  0.000000000000000    
!NUMHESS=  0.000000000000000    
_SEW_ONEEL=  0.000000000000000    
_CPPDONE=FALSE
_DKROLL_DONE=  0.000000000000000    
_FNUC_DONE=  0.000000000000000    
_FOCKDONE=TRUE
_GRADONE=FALSE
_HESSDONE=TRUE
_INTDONE=TRUE
_SCFDONE=TRUE
_MODUL_BLOCK=FALSE
_MODUL_SLATER=TRUE
_MODUL_MRCC=FALSE
_MODUL_NBO6=FALSE
_MODUL_NECI=FALSE
_MODUL_AIMS=TRUE
_MODUL_HDF5=FALSE
_MODUL_GECCO=FALSE
_ISWINDOWS=FALSE
_MRCC_EXEC=
_FITC_AO_SAVED=FALSE
_FITC_MO_SAVED=FALSE
_LSTYP=SEWARD
_INTYP=INTS
_GEOMTYP=XYZ
_GRADTYP=ALASKA
_DIRECT=FALSE
_DKHO= -1.000000000000000    
_FNUC=  0.000000000000000    
_SYNCM=  0.000000000000000    
_BASIS=6-311G(D,P)
_ZCENTRE=MASS
_ZORIENT=  1.000000000000000    
_NELEC=  20.00000000000000    
!SPIN=  0.000000000000000    
_OPTCONV= 0.4724372380703918E-02
_QSDSTEP=  0.000000000000000    
_QSDIRC=  0.000000000000000    
_PROGRAM=FREQ
_CPUSTEP=  2.990000000000000    
_SYSSTEP= 0.8000000000000002E-01
_WALLSTEP=  3.060000000000000    
!DFSCF=  0.000000000000000    
!SCSGRD=  0.000000000000000    
_NCEN=  6.000000000000000    
_CPUTOT=  6.370000000000000    
_DFTEXFAC=  1.000000000000000    
_DMX= 0.6505190389573445E-01
_DMY=  0.000000000000000    
_DMZ=  1.094359334114273    
_DMX_SCF= 0.6505190389573445E-01
_DMY_SCF=  0.000000000000000    
_DMZ_SCF=  1.094359334114273    
_FREQUENCIES= 0.2702362169999897E-04
_HOMO=  2.200000000000000    
_EHOMO=-0.4724988918811090    
_LUMO=  9.100000000000000    
_ELUMO= 0.1345775223978396    
_ENERGY= -152.1029014717387    
_ENERGY_METHOD=HF
_ENERGY_BASIS=6-311G(D,P)
_GEOMETRY_METHOD=HF
_GEOMETRY_BASIS=6-311G(D,P)
_ENUC=  36.52243099346794    
_GRADENERG= -152.1029006248548    
_GRADEXFAC=  9999.000000000000    
_GRADMETHOD=  1.000000000000000    
_NMRMETHOD=  0.000000000000000    
_NMRMAGNET=  0.000000000000000    
_VIRIAL= 0.2504173914326791E-03
!GRID_FREEZE= -1.000000000000000    
!NEESE_INDEX=  0.000000000000000    
_ITERATIONS=  10.00000000000000    
_LASTNELEC=  20.00000000000000    
_LASTSPIN=  0.000000000000000    
_LASTSYM=  1.000000000000000    
_MPP_PROG=  0.000000000000000    
_MSNSTATES=  0.000000000000000    
_RS2PHASE=  0.000000000000000    
_NPROC_MPP=  1.000000000000000    
_NPROC_SMP=  6.000000000000000    
_NUMSTEP=  0.000000000000000    
_OPTCONVMX= 0.4029310380932219E-02
_OPTCONVRMS= 0.1670317873623087E-02
_OPTGRAD= 0.2780820219060946E-03
_OPTGRADMX= 0.1905905002192990E-03
_OPTGRADRMS= 0.9831684170793278E-04
!GMAXLAST= 0.1905905002192990E-03
!DMAXLAST= 0.4029310380932219E-02
!DELAST= 0.1549916078147362E-05
_OPTSTEP=  6.000000000000000    
_ORBITAL=  2100.200000000000    
_PI=  3.141592653589793    
_SEIG_MIN= 0.1363076709318225E-01
_SEWPROP=TRUE
_STATUS=  1.000000000000000    
_SYSTOT= 0.4200000000000000    
_VERSION=  2024001.000000000    
_WALLTOT=  6.800000000000000    
_ZPE= 0.3612403393076735E-01
_DATE=15-Oct-24
_LASTORB=0
_OUTPUT=/home/lme/Theoretische_Chemie/Nomodeco/deuterium_calculations/h2o_dimer_deuterium/d2o_dimer/d2o_dimer.molpro/run/d2o_dimer_1.molpro/d2o_dimer_1.out
_PGROUP=Cs
_TIME=14:47:40
_LIBMOL=/usr/local/molpro/molpro_2024.1.0_sockets/lib/
_VIGRDC=  0.000000000000000    
!VIBCNT=  0.000000000000000    
!SURFREC=  0.000000000000000    
!XSURFREC=  0.000000000000000    
!XPOLYREC=  0.000000000000000    
!ROTREC=  0.000000000000000    
!POLYREC=  0.000000000000000    
!DIPREC=  0.000000000000000    
!DIP4DREC=  0.000000000000000    
!DIPROT=  0.000000000000000    
!DIP4DROT=  0.000000000000000    
!PTREC=  0.000000000000000    
!PT4DREC=  0.000000000000000    
!VSCFREC=  0.000000000000000    
!VCIREC=  0.000000000000000    
!PVCIREC=  0.000000000000000    
!VMP2REC=  0.000000000000000    
!VMCSCFREC=  0.000000000000000    
!VMRCIREC=  0.000000000000000    
!VIBSTATEREC=  0.000000000000000    
!VIBSTATECNT=  0.000000000000000    
!VIBINFO=  0.000000000000000    
!GAREC=  0.000000000000000    
!SCFORB=  21002.00000000000    
!DEFCORE=  2.000000000000000    
!SCORE=  0.000000000000000    
!NEWMOL=  0.000000000000000    
!NEWSYM=  0.000000000000000    
_SLFILES=slscratch
_NGSSTO=  9.000000000000000    
_SIN=SIN
_COS=COS
_TAN=TAN
_ACOS=ACOS
_ASIN=ASIN
_ATAN=ATAN
_COSH=COSH
_SINH=SINH
_TANH=TANH
_ABS=ABS
_MOD=MOD
_ERF=ERF
_REFC=REFC
_ERFC=ERFC
_HYPOT=HYPOT
_J0=J0
_J1=J1
_JN=JN
_GAMMA=GAMMA
_LGAMMA=LGAMMA
_Y0=Y0
_Y1=Y1
_YN=YN
_EXP=EXP
_LOG=LOG
_LOG10=LOG10
_SQRT=SQRT
_INT=INT
_NINT=NINT
_MAX=MAX
_MIN=MIN
_COSMO=  0.000000000000000    
_COSMOIT=  0.000000000000000    
_COSMOES=  0.000000000000000    
_COSMOEDS=  0.000000000000000    
_COSMOEC=  0.000000000000000    
_COSMOEDCORR=  0.000000000000000    
_FEPSI=  1.000000000000000    
_SL_IsMM=  0.000000000000000    
_SL_NSYM=  2.000000000000000    
_SL_System_BitSw=  0.000000000000000    
_SL_Unique_atoms=  0.000000000000000    
_SL_GRAD=  0.000000000000000    
_SL_MAXUPD_Hess=  5.000000000000000    
_SL_N_PRINT_COD=  5.000000000000000    
_SL_PRINT_CODES=  0.000000000000000    
_SL_BasType=  0.000000000000000    
_SL_Energy_Pred=  0.000000000000000    
_SL_New_Coords=  0.000000000000000    
_SL_Total_Nuclea=  0.000000000000000    
_SL_Highest_Mltp=  0.000000000000000    
_SL_Ref_Geom=  0.000000000000000    
_SL_Symmetry_ope=  1.000000000000000    
_SL_agrad=  0.000000000000000    
_SL_GrdMax=  0.000000000000000    
_SL_GrdNorm=  0.000000000000000    
_SL_GrdRMS=  0.000000000000000    
_SL_Hss_Q=  0.000000000000000    
_SL_Hss_X=  0.000000000000000    
_SL_BMxOld=  0.000000000000000    
_SL_KtB=  0.000000000000000    
_SL_TROld=  0.000000000000000    
_SL_No_of_Intern=  0.000000000000000    
_SL_Hess=  0.000000000000000    
_SL_K=  0.000000000000000    
!LATTICE= -1.000000000000000    
!NEWLATTICE=  0.000000000000000    
!LATGRAD_VAR=FALSE
!SEW_LATTICE=  1.000000000000000    
!AIC_ONEEL=  0.000000000000000    
!LOCAL=  0.000000000000000    
!SAVEDOM= -1.000000000000000    
!RESTDOM= -1.000000000000000    
!SAVEDOM_HF= -1.000000000000000    
!RESTDOM_HF= -1.000000000000000    
!HESSREC=  5300.200000000000    
!FREQREC=  5400.200000000000    
!NMODREC=  5450.200000000000    
!GTASKS=  0.000000000000000    
!HTASKS=  0.000000000000000    
!SAVEDOM_EOM= -1.000000000000000    
!RESTDOM_EOM= -1.000000000000000    
!GRADSTATE= -1.000000000000000    
!DEBUG=  0.000000000000000    
!CFIT_CPHF=  0.000000000000000    
!RDOMAUX_CPHF=  0.000000000000000    
!THRAO_CPHF= 0.1000000000000000E-11
!THRMO_CPHF= 0.1000000000000000E-11
!THROV_CPHF= 0.1000000000000000E-13
!THRSW_CPHF= 0.1000000000000000E-11
!THRPROD_CPHF= 0.1000000000000000E-11
!THRAOPR_CPHF= 0.1000000000000000E-11
!CFIT_SCFGRD=  0.000000000000000    
!RDOMAUX_SCFGRD=  0.000000000000000    
!THRAO_SCFGRD= 0.1000000000000000E-11
!THRMO_SCFGRD= 0.1000000000000000E-11
!THROV_SCFGRD= 0.1000000000000000E-13
!THRSW_SCFGRD= 0.1000000000000000E-11
!THRPROD_SCFGRD= 0.1000000000000000E-11
!THRAOPR_SCFGRD= 0.1000000000000000E-11
!LOCFIT_SCF=  0.000000000000000    
!LOCFIT_MP2=  0.000000000000000    
_RIDOM=  0.000000000000000    
!CC2_METHOD=  0.000000000000000    
_BASIS2006=FALSE
_SVDDEL= -1.000000000000000    
_SVDDELA= -1.000000000000000    
_SVDDELP= -1.000000000000000    
_SVDDELF= -1.000000000000000    
_SVDDELS= -1.000000000000000    
_SVDDEL_ABS= -1.000000000000000    
_SVDDELA_ABS= -1.000000000000000    
_SVDDELP_ABS= -1.000000000000000    
_SVDDELF_ABS= -1.000000000000000    
_SVDDELS_ABS= -1.000000000000000    
_MAXBASIS=  0.000000000000000    
!OPT_CONICAL=  0.000000000000000    
!CLEARSP_JGRID=  0.000000000000000    
_GRDHYBR=  0.000000000000000    
_STATEGRAD=  1.000000000000000    
_4EXT_NDISKS=  1.000000000000000    
!EMBEDFLAG=  1.000000000000000    
!EMBED=FALSE
!EMBED_F12=FALSE
!EMBEDNUC=  0.000000000000000    
_EMBEDENERGY=  0.000000000000000    
!EMBED_DFC=FALSE
!NUM_VOIDS=  0.000000000000000    
_IBODY=  0.000000000000000    
_EMBE_CORR=  0.000000000000000    
!EMBED_PROJ=FALSE
!EMB_PROJ_ZMU=  1000000.000000000    
!CORRECTION_HF=  0.000000000000000    
!EMBED_AORB=  0.000000000000000    
!EMBED_NACORR=  0.000000000000000    
!EMBED_MP2=FALSE
!EMBED_TRUNC_PERTURBATION=FALSE
!EMBED_FROZEN=  0.000000000000000    
!EMBED_ACTIVE=  0.000000000000000    
_CHANGE_BASIS=FALSE
_RESTORE_BASIS=FALSE
_FIX_EMBED_GUESS=FALSE
_EMBED_SCF=FALSE
_NEOBAS=FALSE
_NEOOVE=FALSE
_PRINEO=FALSE
_HUZINAGA_T=FALSE
_HUZINAGA_F=FALSE
_HUZINAGA=FALSE
_HUZINAGA_CORRECT=FALSE
!FASTLATGRAD=  1.000000000000000    
!FASTVLAMBDA= -1.000000000000000    
!IFORCE= -1.000000000000000    
!USESYM= -1.000000000000000    
_SINDEX=  0.000000000000000    
_AVDOM_OSV=  0.000000000000000    
_AVDOM_PNO=  0.000000000000000    
_AVDOM_PNOCC=  0.000000000000000    
_AVDOM_TNO=  0.000000000000000    
_AVDOM_TNOIT=  0.000000000000000    
_AVDOM_PAO=  0.000000000000000    
_AVDOM_LMO=  0.000000000000000    
_CC2OSV_FLAG=  0.000000000000000    
_EOMCCSD_CONV=FALSE
_TMADC2_FLAG=FALSE
_PROPADC2_FLAG=FALSE
_LEN_VirQ=  0.000000000000000    
_GRDCC2LR_FLAG=FALSE
_GRDADC2_FLAG=FALSE
_RO_VGLOBAL=  0.000000000000000    
_OPT=FALSE
_FREQ=FALSE
_HESS=FALSE
_CMRCC_callName=EMPTY
_CMRCC_callCount=  0.000000000000000    
_GECCO_CIROOT=  1.000000000000000    
_SYM_CATION=  2.000000000000000    
_MON_A=FALSE
_MON_B=FALSE
_MAXGEOM=  100.0000000000000    
!MAXGEOM=  100.0000000000000    
_NCORE=  0.000000000000000    
_NLARGECORE=  0.000000000000000    
GX1=-0.1178425325565572    
GY1=  0.000000000000000    
GZ1= -1.547763935088763    
GX2= 0.7374547970957342    
GY2=  0.000000000000000    
GZ2= -1.938642058290612    
GX3= 0.3272696347923344E-01
GY3=  0.000000000000000    
GZ3=-0.6147063032695101    
GX4= 0.1075061049477058    
GY4=  0.000000000000000    
GZ4=  1.424383675027833    
GX5=-0.3440341176546493    
GY5=-0.7524091470997358    
GZ5=  1.766746209781763    
GX6=-0.3440341176546493    
GY6= 0.7524091470997358    
GZ6=  1.766746209781763    
O1X1=-0.2226901123641890    
O1Y1=  0.000000000000000    
O1Z1= -2.924849942890821    
H2X2=  1.393587595802406    
H2Y2=  0.000000000000000    
H2Z2= -3.663502543850045    
H3X3= 0.6184499786638091E-01
H3Y3=  0.000000000000000    
H3Z3= -1.161626560260525    
O4X4= 0.2031570950764394    
O4Y4=  0.000000000000000    
O4Z4=  2.691695042190559    
H5X5=-0.6501302598945666    
H5Y5= -1.421847221681765    
H5Z5=  3.338666468208159    
H6X6=-0.6501302598945666    
H6Y6=  1.421847221681765    
H6Z6=  3.338666468208159    
[Atoms] Angs
O     1    8        -0.1178425326        0.0000000000       -1.5477639351
H     2    1         0.7374547971        0.0000000000       -1.9386420583
H     3    1         0.0327269635        0.0000000000       -0.6147063033
O     4    8         0.1075061049        0.0000000000        1.4243836750
H     5    1        -0.3440341177       -0.7524091471        1.7667462098
H     6    1        -0.3440341177        0.7524091471        1.7667462098
[GTO]
   1 0
 s    6  1.00
  0.8588500000D+04  0.1895150083D-02
  0.1297230000D+04  0.1438590063D-01
  0.2992960000D+03  0.7073200310D-01
  0.8737710000D+02  0.2400010105D+00
  0.2567890000D+02  0.5947970261D+00
  0.3740040000D+01  0.2808020123D+00
 s    3  1.00
  0.4211750000D+02  0.1138890124D+00
  0.9628370000D+01  0.9208111006D+00
  0.2853320000D+01 -0.3274470358D-02
 s    1  1.00
  0.9056610000D+00  0.1000000000D+01
 s    1  1.00
  0.2556110000D+00  0.1000000000D+01
 p    3  1.00
  0.4211750000D+02  0.3651139738D-01
  0.9628370000D+01  0.2371529830D+00
  0.2853320000D+01  0.8197019412D+00
 p    1  1.00
  0.9056610000D+00  0.1000000000D+01
 p    1  1.00
  0.2556110000D+00  0.1000000000D+01
 d    1  1.00
  0.1292000000D+01  0.1000000000D+01
  
   2 0
 s    3  1.00
  0.3386500000D+02  0.2549381454D-01
  0.5094790000D+01  0.1903731086D+00
  0.1158790000D+01  0.8521614860D+00
 s    1  1.00
  0.3258400000D+00  0.1000000000D+01
 s    1  1.00
  0.1027410000D+00  0.1000000000D+01
 p    1  1.00
  0.7500000000D+00  0.1000000000D+01
  
   3 0
 s    3  1.00
  0.3386500000D+02  0.2549381454D-01
  0.5094790000D+01  0.1903731086D+00
  0.1158790000D+01  0.8521614860D+00
 s    1  1.00
  0.3258400000D+00  0.1000000000D+01
 s    1  1.00
  0.1027410000D+00  0.1000000000D+01
 p    1  1.00
  0.7500000000D+00  0.1000000000D+01
  
   4 0
 s    6  1.00
  0.8588500000D+04  0.1895150083D-02
  0.1297230000D+04  0.1438590063D-01
  0.2992960000D+03  0.7073200310D-01
  0.8737710000D+02  0.2400010105D+00
  0.2567890000D+02  0.5947970261D+00
  0.3740040000D+01  0.2808020123D+00
 s    3  1.00
  0.4211750000D+02  0.1138890124D+00
  0.9628370000D+01  0.9208111006D+00
  0.2853320000D+01 -0.3274470358D-02
 s    1  1.00
  0.9056610000D+00  0.1000000000D+01
 s    1  1.00
  0.2556110000D+00  0.1000000000D+01
 p    3  1.00
  0.4211750000D+02  0.3651139738D-01
  0.9628370000D+01  0.2371529830D+00
  0.2853320000D+01  0.8197019412D+00
 p    1  1.00
  0.9056610000D+00  0.1000000000D+01
 p    1  1.00
  0.2556110000D+00  0.1000000000D+01
 d    1  1.00
  0.1292000000D+01  0.1000000000D+01
  
   5 0
 s    3  1.00
  0.3386500000D+02  0.2549381454D-01
  0.5094790000D+01  0.1903731086D+00
  0.1158790000D+01  0.8521614860D+00
 s    1  1.00
  0.3258400000D+00  0.1000000000D+01
 s    1  1.00
  0.1027410000D+00  0.1000000000D+01
 p    1  1.00
  0.7500000000D+00  0.1000000000D+01
  
   6 0
 s    3  1.00
  0.3386500000D+02  0.2549381454D-01
  0.5094790000D+01  0.1903731086D+00
  0.1158790000D+01  0.8521614860D+00
 s    1  1.00
  0.3258400000D+00  0.1000000000D+01
 s    1  1.00
  0.1027410000D+00  0.1000000000D+01
 p    1  1.00
  0.7500000000D+00  0.1000000000D+01


[MO]
 Sym=      1.1
 Ene=     -20.5718
 Spin= Alpha
 Occup=    2.000000
1 -0.000021389850563
2 -0.000025339855109
3 0.000061982279752
4 -0.000243740931574
5 0.000004092986613
6 0.0
7 -0.000010503807334
8 -0.000018004957502
9 0.0
10 0.000038387279638
11 -0.000023251528869
12 0.0
13 -0.000136938165512
14 -0.000005929220086
15 0.000008395479278
16 -0.000002466259192
17 0.0
18 0.000004575454739
19 0.0
20 0.000000940642518
21 0.000066090628298
22 -0.000083401444582
23 -0.000017149583627
24 0.0
25 0.000017798166420
26 -0.000032057418457
27 0.000166806135910
28 0.000196014378808
29 -0.000001034024030
30 0.0
31 0.000027594779828
32 0.55142947890353
33 0.47167089498054
34 0.005607080230093
35 -0.000565139675980
36 -0.001396909956045
37 0.0
38 0.000978655749545
39 0.000488991265204
40 0.0
41 -0.000386235618167
42 -0.000050538913378
43 0.0
44 0.000144803609554
45 0.000035931549067
46 -0.000095730950390
47 0.000059799401323
48 0.0
49 0.000072559866830
50 0.0
51 0.000194889212416
52 0.000144706781579
53 0.000052268143749
54 0.000006909445385
55 0.000075700584834
56 -0.000027495453002
57 0.000194889212416
58 0.000144706781579
59 0.000052268143749
60 0.000006909445385
61 -0.000075700584834
62 -0.000027495453002
 Sym=      2.1
 Ene=     -20.5101
 Spin= Alpha
 Occup=    2.000000
1 0.55142510698560
2 0.47167143429780
3 0.005617690635287
4 -0.000567654935876
5 0.001540351452238
6 0.0
7 0.000749017139615
8 -0.000538017250995
9 0.0
10 -0.000229169447998
11 0.000073957122486
12 0.0
13 -0.000030233472842
14 -0.000045000793761
15 0.000109071218701
16 -0.000064070424940
17 0.0
18 0.000047065521031
19 0.0
20 0.000206612239982
21 0.000115323886783
22 0.000042052289054
23 -0.000049950099918
24 0.0
25 0.000061882296111
26 0.000197021952268
27 0.000111688573037
28 0.000231414029336
29 0.000020884633702
30 0.0
31 -0.000061530305238
32 0.000021969384998
33 0.000016951126562
34 0.000017530837619
35 -0.000060811536779
36 -0.000002973543528
37 0.0
38 0.000009651285967
39 0.000011422138735
40 0.0
41 -0.000028121409043
42 -0.000006089871585
43 0.0
44 0.000080965612901
45 0.000002633187538
46 -0.000001543801279
47 -0.000001089386259
48 0.0
49 -0.000000842099204
50 0.0
51 -0.000002825510781
52 0.000021786139227
53 -0.000033740144334
54 0.000001267839357
55 0.000001277436358
56 -0.000009919713954
57 -0.000002825510781
58 0.000021786139227
59 -0.000033740144334
60 0.000001267839357
61 -0.000001277436358
62 -0.000009919713954
 Sym=      3.1
 Ene=      -1.3777
 Spin= Alpha
 Occup=    2.000000
1 -0.006928513099103
2 -0.011520271751873
3 0.032002428469115
4 0.024074781102448
5 0.001905406734352
6 0.0
7 0.002353604482738
8 0.003413963696971
9 0.0
10 0.002871886039772
11 0.001189265927704
12 0.0
13 0.003312836063728
14 0.000142532210379
15 -0.000642342717862
16 0.000499810507483
17 0.0
18 -0.000024967209965
19 0.0
20 0.005544009364597
21 0.003233124769060
22 0.001641403017173
23 -0.001201973411636
24 0.0
25 0.000562067155698
26 0.008931674234363
27 0.006729435338167
28 -0.001429613589658
29 -0.000125944032074
30 0.0
31 -0.001744137711858
32 -0.11337782457289
33 -0.18940128327357
34 0.53780948445220
35 0.37669493492174
36 -0.029881871151863
37 0.0
38 0.021337074033666
39 -0.049997076732390
40 0.0
41 0.035690900480251
42 -0.017162673911292
43 0.0
44 0.007582949658800
45 -0.001612081487225
46 0.005656329422500
47 -0.004044247935275
48 0.0
49 -0.005985596107255
50 0.0
51 0.095518634073087
52 0.077958084261712
53 -0.002802606706664
54 0.011436502732801
55 0.023573297297849
56 -0.008195065846713
57 0.095518634073087
58 0.077958084261712
59 -0.002802606706664
60 0.011436502732801
61 -0.023573297297849
62 -0.008195065846713
 Sym=      4.1
 Ene=      -1.3193
 Spin= Alpha
 Occup=    2.000000
1 -0.11314741404836
2 -0.18894606237423
3 0.53517861278361
4 0.37940313158180
5 0.033286797167338
6 0.0
7 0.017377608848742
8 0.055666927537183
9 0.0
10 0.028486282497555
11 0.017720361768104
12 0.0
13 0.012018868156241
14 0.003468286921643
15 -0.008333279168265
16 0.004864992246622
17 0.0
18 -0.001506921635445
19 0.0
20 0.097044209211571
21 0.080940741806194
22 0.000567320872926
23 -0.023688167933819
24 0.0
25 0.013753309083799
26 0.093977384830172
27 0.075130308860091
28 -0.008458608248260
29 -0.001721149557586
30 0.0
31 -0.027861225171401
32 0.007786429690277
33 0.013044731328313
34 -0.037524969651189
35 -0.024129358899780
36 0.002306875577007
37 0.0
38 -0.003827797513029
39 0.003543552354199
40 0.0
41 -0.004570589364738
42 0.001212873943968
43 0.0
44 -0.005713820591118
45 0.000087543096146
46 -0.000385233851160
47 0.000297690755013
48 0.0
49 0.000544729281708
50 0.0
51 -0.007088868114073
52 -0.007245352586032
53 0.002167671848305
54 -0.000877132577379
55 -0.001879897485846
56 0.000722248369299
57 -0.007088868114073
58 -0.007245352586032
59 0.002167671848305
60 -0.000877132577379
61 0.001879897485846
62 0.000722248369299
 Sym=      1.2
 Ene=      -0.7458
 Spin= Alpha
 Occup=    2.000000
1 0.0
2 0.0
3 0.0
4 0.0
5 0.0
6 0.001725246724014
7 0.0
8 0.0
9 0.002130722237270
10 0.0
11 0.0
12 0.003281153991483
13 0.0
14 0.0
15 0.0
16 0.0
17 0.000094966907913
18 0.0
19 0.000089651301263
20 0.0
21 0.0
22 0.0
23 0.0
24 0.000037751291156
25 0.0
26 0.0
27 0.0
28 0.0
29 0.0
30 0.001172080725472
31 0.0
32 0.0
33 0.0
34 0.0
35 0.0
36 0.0
37 0.22887447786390
38 0.0
39 0.0
40 0.35159536193766
41 0.0
42 0.0
43 0.21816406701165
44 0.0
45 0.0
46 0.0
47 0.0
48 -0.023434416594363
49 0.0
50 0.016878447802516
51 -0.15067155440616
52 -0.20577618143193
53 -0.049047582141983
54 -0.020049922598006
55 -0.018914097238329
56 0.015514312164785
57 0.15067155440616
58 0.20577618143193
59 0.049047582141983
60 0.020049922598006
61 -0.018914097238329
62 -0.015514312164785
 Sym=      5.1
 Ene=      -0.6925
 Spin= Alpha
 Occup=    2.000000
1 0.000392963339524
2 0.000660495881819
3 -0.001757688058597
4 0.000421290077931
5 -0.10027812477184
6 0.0
7 0.19738012326173
8 -0.15400870472242
9 0.0
10 0.30227083493535
11 -0.092456678192824
12 0.0
13 0.18897779597433
14 -0.019942787228418
15 0.000028324123463
16 0.019914463104955
17 0.0
18 0.015938324700655
19 0.0
20 -0.14622455959939
21 -0.20511161169012
22 -0.057733725397711
23 0.030353711993749
24 0.0
25 -0.003354771955461
26 0.14747098941359
27 0.19696825552554
28 0.061288658884357
29 -0.013183250599545
30 0.0
31 -0.029360887352615
32 -0.002996875003789
33 -0.005129167516947
34 0.015726976313987
35 0.036220219063903
36 0.014645413139799
37 0.0
38 -0.050005386120291
39 0.022071995578697
40 0.0
41 -0.077089812574796
42 0.011900407364725
43 0.0
44 -0.064241181963796
45 -0.000042531976737
46 -0.000245995965816
47 0.000288527942554
48 0.0
49 0.003345841254086
50 0.0
51 -0.016657822487565
52 -0.026178334161598
53 -0.004143372466817
54 -0.000994434397398
55 -0.005596414276744
56 -0.003261069100031
57 -0.016657822487565
58 -0.026178334161598
59 -0.004143372466817
60 -0.000994434397398
61 0.005596414276744
62 -0.003261069100031
 Sym=      6.1
 Ene=      -0.6036
 Spin= Alpha
 Occup=    2.000000
1 0.010099694776082
2 0.017004735240330
3 -0.048053197770510
4 -0.098420631203201
5 0.060638466196656
6 0.0
7 -0.019980217080628
8 0.088767786990086
9 0.0
10 -0.031763387447261
11 0.076339552177301
12 0.0
13 -0.023053896693827
14 0.006136136996372
15 -0.002138876827448
16 -0.003997260168924
17 0.0
18 -0.001420926830386
19 0.0
20 0.043799848154250
21 0.064363388852413
22 0.010222407333930
23 -0.006939408741031
24 0.0
25 0.005503477443450
26 -0.007590119207429
27 -0.003363886034115
28 0.039770138524417
29 0.007176286299192
30 0.0
31 0.003006687617138
32 -0.035409367887956
33 -0.060202828152891
34 0.18202860813209
35 0.30715721236330
36 0.19511258315748
37 0.0
38 -0.15073180156425
39 0.28959310994541
40 0.0
41 -0.22697994361650
42 0.26306413531354
43 0.0
44 -0.20011380114715
45 -0.006263100719678
46 0.003003169867605
47 0.003259930852074
48 0.0
49 0.015200875919483
50 0.0
51 -0.084730543920378
52 -0.12881501270360
53 -0.032874884408074
54 0.006687570688887
55 -0.027319393941688
56 -0.005358014551798
57 -0.084730543920378
58 -0.12881501270360
59 -0.032874884408074
60 0.006687570688887
61 0.027319393941688
62 -0.005358014551798
 Sym=      7.1
 Ene=      -0.5487
 Spin= Alpha
 Occup=    2.000000
1 0.033466432875355
2 0.056923408991059
3 -0.17230177488028
4 -0.28654508487726
5 0.19941514601636
6 0.0
7 0.095845771011306
8 0.29557218873793
9 0.0
10 0.14006950399279
11 0.26563140789072
12 0.0
13 0.13899469262445
14 0.011430893341576
15 -0.011052467075601
16 -0.000378426265976
17 0.0
18 0.007667252306429
19 0.0
20 0.082675585659145
21 0.13877525104105
22 0.027979960994768
23 -0.006253595669937
24 0.0
25 0.025557662797402
26 0.070372847377136
27 0.10584280441634
28 0.016273717506304
29 0.017727876421403
30 0.0
31 -0.017299364561941
32 0.009043268995014
33 0.015444003249665
34 -0.048059178516393
35 -0.071262871719203
36 -0.11907550666555
37 0.0
38 -0.072777905549018
39 -0.17895133010138
40 0.0
41 -0.10967827777691
42 -0.17607469102887
43 0.0
44 -0.12424374589344
45 0.006932134661534
46 -0.001387457071369
47 -0.005544677590164
48 0.0
49 -0.000714880880126
50 0.0
51 0.015751767776803
52 0.029336501495286
53 0.004516834464114
54 -0.010154460441672
55 0.005890192865567
56 -0.009177408886260
57 0.015751767776803
58 0.029336501495286
59 0.004516834464114
60 -0.010154460441672
61 -0.005890192865567
62 -0.009177408886260
 Sym=      8.1
 Ene=      -0.5237
 Spin= Alpha
 Occup=    2.000000
1 0.013433160500082
2 0.022901469494246
3 -0.070889816755574
4 -0.11570648427509
5 0.091062565138305
6 0.0
7 0.089476222885182
8 0.13441420186884
9 0.0
10 0.13420569962085
11 0.12929404079657
12 0.0
13 0.11764964219166
14 0.003149317199675
15 -0.005930214692104
16 0.002780897492429
17 0.0
18 0.006797790887259
19 0.0
20 0.021840857523486
21 0.035376120925691
22 0.017457663398404
23 0.002052838114211
24 0.0
25 0.015091907092673
26 0.052140387145330
27 0.091664858397659
28 -0.035468432307382
29 0.009024692813389
30 0.0
31 -0.016308222389380
32 0.002527027167986
33 0.004258795561703
34 -0.010811044756621
35 -0.035397909457110
36 0.14391889821044
37 0.0
38 0.21441521835420
39 0.21621635968944
40 0.0
41 0.32283130304927
42 0.23727597229328
43 0.0
44 0.33425146484415
45 -0.011591667511539
46 -0.000041201219044
47 0.011632868730582
48 0.0
49 -0.005379225607083
50 0.0
51 0.005813074815062
52 0.013411146603786
53 0.009702959644403
54 0.016373644959830
55 0.003377303260938
56 0.021509692385557
57 0.005813074815062
58 0.013411146603786
59 0.009702959644403
60 0.016373644959830
61 -0.003377303260938
62 0.021509692385557
 Sym=      2.2
 Ene=      -0.4725
 Spin= Alpha
 Occup=    2.000000
1 0.0
2 0.0
3 0.0
4 0.0
5 0.0
6 0.29036623463488
7 0.0
8 0.0
9 0.43379663528391
10 0.0
11 0.0
12 0.47057526397945
13 0.0
14 0.0
15 0.0
16 0.0
17 0.014752060761653
18 0.0
19 0.007673169577212
20 0.0
21 0.0
22 0.0
23 0.0
24 0.031352834612861
25 0.0
26 0.0
27 0.0
28 0.0
29 0.0
30 0.029612492034793
31 0.0
32 0.0
33 0.0
34 0.0
35 0.0
36 0.0
37 -0.003049065327198
38 0.0
39 0.0
40 -0.004456717792942
41 0.0
42 0.0
43 0.006271330699397
44 0.0
45 0.0
46 0.0
47 0.0
48 -0.000283990066056
49 0.0
50 -0.000125706559156
51 0.001035145082071
52 0.016555248275544
53 -0.018200164799406
54 0.001467672159132
55 0.000726683237022
56 -0.000685531251054
57 -0.001035145082071
58 -0.016555248275544
59 0.018200164799406
60 -0.001467672159132
61 0.000726683237022
62 0.000685531251054
 Sym=      9.1
 Ene=       0.1346
 Spin= Alpha
 Occup=    0.000000
1 0.012389187497352
2 0.020831598262813
3 -0.055598458160420
4 -0.17803796320825
5 -0.020774107789017
6 0.0
7 -0.018987877197555
8 -0.026467754196961
9 0.0
10 -0.035867927322375
11 -0.055340466750117
12 0.0
13 0.014608591692012
14 -0.001384328612053
15 -0.000319649512917
16 0.001703978124970
17 0.0
18 -0.001607746878061
19 0.0
20 0.014705337747842
21 -0.046479192497831
22 0.35564135005971
23 0.001522125479967
24 0.0
25 -0.007975206465004
26 0.010977580356955
27 -0.063046177926680
28 0.061950035716769
29 0.000261193190722
30 0.0
31 0.010060897884922
32 0.033898568532188
33 0.055733631707964
34 -0.11456138335990
35 -0.81356461062516
36 0.052723948565062
37 0.0
38 -0.033790697419190
39 0.083119218160833
40 0.0
41 -0.050256729554881
42 0.15169986970825
43 0.0
44 -0.10991332756173
45 -0.001176075383486
46 -0.000853394328863
47 0.002029469712349
48 0.0
49 0.004365573411669
50 0.0
51 0.034110288665659
52 -0.051004529509006
53 0.78698276346349
54 0.002290562456948
55 -0.004899421796507
56 0.000071510202940
57 0.034110288665659
58 -0.051004529509006
59 0.78698276346349
60 0.002290562456948
61 0.004899421796507
62 0.000071510202940
 Sym=     10.1
 Ene=       0.1948
 Spin= Alpha
 Occup=    0.000000
1 0.027892056066110
2 0.045463475779211
3 -0.084614774081808
4 -0.72578775469418
5 -0.077473556382225
6 0.0
7 0.026504390481151
8 -0.10748742587880
9 0.0
10 0.015963330292754
11 -0.25459599232300
12 0.0
13 0.12856329763729
14 -0.005173878539308
15 0.004505459635491
16 0.000668418903817
17 0.0
18 0.000943187545904
19 0.0
20 0.037508788455305
21 -0.12948968228787
22 1.43016823686675
23 0.004703114716826
24 0.0
25 -0.005920973686080
26 0.020101315442664
27 0.000913903532188
28 0.039997881573043
29 -0.006058488875710
30 0.0
31 -0.003596865563873
32 -0.006903815811539
33 -0.010778331539414
34 0.007780456102359
35 0.27383179969622
36 -0.022045590364233
37 0.0
38 0.034892357605617
39 -0.037561920033773
40 0.0
41 0.060086370031840
42 -0.059312992232299
43 0.0
44 0.066557112456008
45 -0.000757408769043
46 -0.000883945329757
47 0.001641354098800
48 0.0
49 -0.003332912672151
50 0.0
51 -0.009101517061840
52 0.005692964004145
53 -0.27759209413363
54 -0.000919762982824
55 0.003122057571039
56 0.004533855871106
57 -0.009101517061840
58 0.005692964004145
59 -0.27759209413363
60 -0.000919762982824
61 -0.003122057571039
62 0.004533855871106
 Sym=      3.2
 Ene=       0.2058
 Spin= Alpha
 Occup=    0.000000
1 0.0
2 0.0
3 0.0
4 0.0
5 0.0
6 0.011122988701748
7 0.0
8 0.0
9 0.020324901287778
10 0.0
11 0.0
12 0.010065016619137
13 0.0
14 0.0
15 0.0
16 0.0
17 0.000572781524535
18 0.0
19 -0.001389693529576
20 0.0
21 0.0
22 0.0
23 0.0
24 0.003068420060216
25 0.0
26 0.0
27 0.0
28 0.0
29 0.0
30 -0.000036346770304
31 0.0
32 0.0
33 0.0
34 0.0
35 0.0
36 0.0
37 0.12098458580109
38 0.0
39 0.0
40 0.13146656267750
41 0.0
42 0.0
43 0.49166503016781
44 0.0
45 0.0
46 0.0
47 0.0
48 -0.003897799307625
49 0.0
50 0.002548219478807
51 0.024929635616481
52 -0.11955267364119
53 1.56420107884345
54 -0.007012927784276
55 -0.009421050972936
56 0.005411470573989
57 -0.024929635616481
58 0.11955267364119
59 -1.56420107884345
60 0.007012927784276
61 -0.009421050972936
62 -0.005411470573989
 Sym=     11.1
 Ene=       0.3275
 Spin= Alpha
 Occup=    0.000000
1 0.019423982179008
2 0.032541800720240
3 -0.080713401129503
4 -0.42169580177602
5 0.028618494863496
6 0.0
7 -0.10692040510924
8 0.021625937324937
9 0.0
10 -0.11573223888377
11 0.16553816696362
12 0.0
13 -0.42370251171026
14 0.002012746794168
15 0.001458585821816
16 -0.003471332615984
17 0.0
18 -0.002307939004149
19 0.0
20 -0.007862350571154
21 0.067661049146760
22 -1.20815862394497
23 -0.004371222519258
24 0.0