
 Working directory              : /tmp/lme/molpro.tls1xyDMXU/
 Global scratch directory       : /tmp/lme/molpro.tls1xyDMXU/
 Wavefunction directory         : /home/lme/wfu/
 Main file repository           : /tmp/lme/molpro.tls1xyDMXU/

 id        : liedlgroup

 Nodes     nprocs
 sv1-c724     1
 GA implementation: MPI file
 GA implementation (serial work in mppx): MPI file

 Using customized tuning parameters: mindgm=1; mindgv=20; mindgc=4; mindgr=1; noblas=0; minvec=7
 default implementation of scratch files=df  


 Variables initialized (1042), CPU time= 0.00 sec
 
                     orient,mass
                     geometry=initial.xyz
 Including file /home/lme/Theoretische_Chemie/Nomodeco/deuterium_calculations/h2o_dimer_deuterium/d2o_dimer/d2o_dimer.molpro/run/d2o_dimer_1.molpro/initial.xyz
                     mass, H2=2.014; mass, H3=2.014; mass, H5=2.014; mass, H6=2.014; ! Set custom mass for hydrogen
                     basis=6-311g(d,p)
                     {hf
                     start, atden}
                     optg;
                     {frequencies, symm=auto, print=0, analytical}
                     put, molden, d2o_dimer.molden
 Commands initialized (847), CPU time= 0.01 sec, 718 directives.
 Default parameters read. Elapsed time= 0.11 sec

 Checking input...
 Passed
1


                                         ***  PROGRAM SYSTEM MOLPRO  ***
                                       Copyright, TTI GmbH Stuttgart, 2015
                                    Version 2024.1 linked Wed Jan 31 11:42:09 2024


 **********************************************************************************************************************************
 LABEL *                                                                                                                                                                 
  (6 PROC) 64 bit serial version                                                         DATE: 15-Oct-24          TIME: 14:47:40  
 **********************************************************************************************************************************

 SHA1:             675817fde4514a4a933b69e420913a90cee4ef91
 **********************************************************************************************************************************

 Memory per process:        32 MW
 Total memory per node:     32 MW

 GA preallocation disabled
 GA check disabled

 Variable memory set to 32.0 MW

 ZCENTRE=MASS


 Geometry recognized as XYZ


 SETTING MASS FOR H2   (Z=  1)   TO   2.014

 SETTING MASS FOR H3   (Z=  1)   TO   2.014

 SETTING MASS FOR H5   (Z=  1)   TO   2.014

 SETTING MASS FOR H6   (Z=  1)   TO   2.014
 SETTING BASIS          =    6-311G(D,P)


 Recomputing integrals since basis changed


 Using spherical harmonics

 Library entry O      S 6-311G               selected for orbital group  1
 Library entry O      P 6-311G               selected for orbital group  1
 Library entry O      D 6-311G*              selected for orbital group  1
 Library entry H      S 6-311G               selected for orbital group  2
 Library entry H      P 6-311G**             selected for orbital group  2


 PROGRAM * SEWARD (Integral evaluation for generally contracted gaussian basis sets)     Author: Roland Lindh, 1990

 Geometry written to block  1 of record 700

 Orientation using atomic masses  
 Molecule type: Asymmetric top
 Symmetry elements: Y
 Rotational constants:       5.6424991      5.6534612    113.2540784 GHz  (calculated with average atomic masses)

 Point group  Cs  



 ATOMIC COORDINATES

 NR  ATOM    CHARGE       X              Y              Z

   1  O1      8.00   -0.229346978    0.000000000   -2.857478099
   2  H2      1.00    1.425414567    0.000000000   -3.587567564
   3  H3      1.00    0.070186709    0.000000000   -1.060812153
   4  O4      8.00    0.216791824    0.000000000    2.624233284
   5  H5      1.00   -0.697930991   -1.433546238    3.250648918
   6  H6      1.00   -0.697930991    1.433546238    3.250648918

 Bond lengths in Bohr (Angstrom)

 1-2  1.808664258  1-3  1.821463409  4-5  1.812227688  4-6  1.812227688
     ( 0.957103908)     ( 0.963876927)     ( 0.958989593)     ( 0.958989593)

 Bond angles

  2-1-3  104.34222840   5-4-6  104.56578553

 NUCLEAR CHARGE:                   20
 NUMBER OF PRIMITIVE AOS:          96
 NUMBER OF SYMMETRY AOS:           94
 NUMBER OF CONTRACTIONS:           60   (   42A'  +   18A"  )
 NUMBER OF INNER CORE ORBITALS:     0   (    0A'  +    0A"  )
 NUMBER OF OUTER CORE ORBITALS:     2   (    2A'  +    0A"  )
 NUMBER OF VALENCE ORBITALS:       12   (    9A'  +    3A"  )


 NUCLEAR REPULSION ENERGY   36.66278165


 Eigenvalues of metric

         1 0.138E-01 0.187E-01 0.400E-01 0.535E-01 0.897E-01 0.906E-01 0.107E+00 0.114E+00
         2 0.405E-01 0.981E-01 0.124E+00 0.215E+00 0.391E+00 0.455E+00 0.553E+00 0.651E+00


 Contracted 2-electron integrals neglected if value below      1.0D-11
 AO integral compression algorithm  1   Integral accuracy      1.0D-11

     3.670 MB (compressed) written to integral file ( 39.9%)


 NUMBER OF SORTED TWO-ELECTRON INTEGRALS:     886101.     BUFFER LENGTH:  32768
 NUMBER OF SEGMENTS:   1  SEGMENT LENGTH:     886101      RECORD LENGTH: 524288

 Memory used in sort:       1.44 MW

 SORT1 READ     1112376. AND WROTE      659899. INTEGRALS IN      2 RECORDS. CPU TIME:     0.01 SEC, REAL TIME:     0.02 SEC
 SORT2 READ      659899. AND WROTE      886101. INTEGRALS IN     14 RECORDS. CPU TIME:     0.03 SEC, REAL TIME:     0.03 SEC

 FILE SIZES:   FILE 1:    33.8 MBYTE,  FILE 4:     8.5 MBYTE,   TOTAL:     42.3 MBYTE

 OPERATOR DM      FOR CENTER  0  COORDINATES:    0.000000    0.000000    0.000000


 **********************************************************************************************************************************
 DATASETS  * FILE   NREC   LENGTH (MB)   RECORD NAMES
              1      19       31.40       500      610      700      900      950      970     1000      129      960     1100   
                                          VAR    BASINP    GEOM    SYMINP    ZMAT    AOBASIS   BASIS     P2S    ABASIS      S 
                                         1400     1410     1200     1210     1080     1600     1650     1300     1700   
                                           T        V       H0       H01     AOSYM     SMH    MOLCAS    ERIS     OPER   

 PROGRAMS   *        TOTAL       INT
 CPU TIMES  *         0.37      0.22
 REAL TIME  *         0.45 SEC
 DISK USED  *        40.75 MB
 **********************************************************************************************************************************


 Program * Restricted Hartree-Fock

 Orbital guess generated from atomic densities.

 Initial occupancy:   8   2

 NELEC=   20   SYM=1   MS2= 0   THRE=1.0D-08   THRD=1.0D-06   THRG=1.0D-06  HFMA2=F  DIIS_START=2   DIIS_MAX=10   DIIS_INCORE=F

 Level shifts:    0.00 (CLOSED)    0.00 (OPEN)    0.30 (GAP_MIN)

 ITER           ETOT              DE          GRAD        DDIFF     DIIS  NEXP   TIME(IT)  TIME(TOT)  DIAG
   1     -152.03071394    -152.03071394     0.00D+00     0.82D-01     0     0       0.01      0.03    start
   2     -152.08514823      -0.05443429     0.17D-01     0.13D-01     1     0       0.00      0.03    diag
   3     -152.10102446      -0.01587622     0.93D-02     0.42D-02     2     0       0.01      0.04    diag
   4     -152.10144099      -0.00041653     0.10D-02     0.84D-03     3     0       0.00      0.04    diag
   5     -152.10147842      -0.00003743     0.27D-03     0.32D-03     4     0       0.01      0.05    diag
   6     -152.10148015      -0.00000172     0.53D-04     0.65D-04     5     0       0.00      0.05    diag
   7     -152.10148025      -0.00000010     0.18D-04     0.12D-04     6     0       0.01      0.06    diag
   8     -152.10148026      -0.00000001     0.51D-05     0.55D-05     7     0       0.00      0.06    fixocc
   9     -152.10148026      -0.00000000     0.58D-06     0.75D-06     8     0       0.00      0.06    diag
  10     -152.10148026      -0.00000000     0.11D-06     0.99D-07     0     0       0.01      0.07    diag/orth

 Final occupancy:   8   2

 !RHF STATE 1.1 Energy               -152.101480262351
  RHF One-electron energy            -282.861301362273
  RHF Two-electron energy              94.097039446171
  RHF Kinetic energy                  152.102752950237
  RHF Nuclear energy                   36.662781653751
  RHF Virial quotient                  -0.999991632710

 !RHF STATE 1.1 Dipole moment           0.03571147     0.00000000     1.10674789
 Dipole moment /Debye                   0.09076951     0.00000000     2.81307255

 Orbital energies:

           1.1          2.1          3.1          4.1          5.1          6.1          7.1          8.1          9.1         10.1
    -20.578311   -20.510706    -1.373297    -1.308560    -0.681550    -0.605709    -0.548667    -0.521326     0.131349     0.194609

           1.2          2.2          3.2          4.2
     -0.736392    -0.469092     0.203189     0.537486


 HOMO      2.2    -0.469092 =     -12.7646eV
 LUMO      9.1     0.131349 =       3.5742eV
 LUMO-HOMO         0.600440 =      16.3388eV

 Orbitals saved in record  2100.2


 **********************************************************************************************************************************
 DATASETS  * FILE   NREC   LENGTH (MB)   RECORD NAMES
              1      19       31.40       500      610      700      900      950      970     1000      129      960     1100   
                                          VAR    BASINP    GEOM    SYMINP    ZMAT    AOBASIS   BASIS     P2S    ABASIS      S 
                                         1400     1410     1200     1210     1080     1600     1650     1300     1700   
                                           T        V       H0       H01     AOSYM     SMH    MOLCAS    ERIS     OPER   

              2       4        0.50       700     1000      520     2100   
                                         GEOM     BASIS   MCVARS     RHF  

 PROGRAMS   *        TOTAL    HF-SCF       INT
 CPU TIMES  *         0.44      0.07      0.22
 REAL TIME  *         0.53 SEC
 DISK USED  *        40.75 MB
 **********************************************************************************************************************************


 PROGRAM * OPT (Geometry optimization)     Authors: F. Eckert and H.-J. Werner


 BFGS update of hessian

 *** Long output written to logfile /home/lme/Theoretische_Chemie/Nomodeco/deuterium_calculations/h2o_dimer_deuterium/d2o_dimer/d2o_dimer.molpro/run/d2o_dimer_1.molpro/d2o_dimer_1.log ***


 Geometry optimization using default procedure for command HF-SCF

 Geometry written to block  1 of record 700

 PQS Optimization using delocalized internal coordinates

 Point group cs. Number of degrees of freedom:    8

 ITER.   ENERGY(OLD)    ENERGY(NEW)      DE          GRADMAX     GRADNORM    GRADRMS     STEPMAX     STEPLEN     STEPRMS   CPU-time
   1  -152.10148026  -152.10278310    -0.00130284  0.02094755  0.03662060  0.01294734  0.06577586  0.07860418  0.02779077      0.46
   2  -152.10278310  -152.10284571    -0.00006261  0.00202595  0.00279770  0.00098914  0.02893847  0.03972586  0.01404521      0.92
   3  -152.10284571  -152.10288430    -0.00003859  0.00086254  0.00134525  0.00047562  0.03087624  0.05054636  0.01787084      1.40
   4  -152.10288430  -152.10289907    -0.00001478  0.00086976  0.00113884  0.00040264  0.02064999  0.04003961  0.01415614      1.85
   5  -152.10289907  -152.10290062    -0.00000155  0.00040461  0.00051516  0.00018214  0.00647028  0.00957026  0.00338360      2.28
   6  -152.10290062  -152.10290147    -0.00000085  0.00019059  0.00027808  0.00009832  0.00402931  0.00472437  0.00167032      2.72

 END OF GEOMETRY OPTIMIZATION.

 Geometry written to block  1 of record 700

 Recomputing wavefunction for reoriented structure

 Current geometry (xyz format, in Angstrom)

    6
 HF-SCF000/6-311G(D,P)  ENERGY=-152.10290147
 O         -0.1178425326        0.0000000000       -1.5477639351
 H          0.7374547971        0.0000000000       -1.9386420583
 H          0.0327269635        0.0000000000       -0.6147063033
 O          0.1075061049        0.0000000000        1.4243836750
 H         -0.3440341177       -0.7524091471        1.7667462098
 H         -0.3440341177        0.7524091471        1.7667462098

 **********************************************************************************************************************************


 **********************************************************************************************************************************
 DATASETS  * FILE   NREC   LENGTH (MB)   RECORD NAMES
              1      19       31.35       500      610      700      900      950      970     1000      129      960     1100   
                                          VAR    BASINP    GEOM    SYMINP    ZMAT    AOBASIS   BASIS     P2S    ABASIS      S 
                                         1400     1410     1200     1210     1080     1600     1650     1300     1700   
                                           T        V       H0       H01     AOSYM     SMH    MOLCAS    ERIS     OPER   

              2       4        0.50       700     1000      520     2100   
                                         GEOM     BASIS   MCVARS     RHF  

 PROGRAMS   *        TOTAL      OPTG    HF-SCF       INT
 CPU TIMES  *         3.38      2.94      0.07      0.22
 REAL TIME  *         3.74 SEC
 DISK USED  *        41.17 MB
 **********************************************************************************************************************************


 PROGRAM * HESSIAN

 PROGRAM * MCKINLEY (Hessian of the energy)     Author: A. Bernhardsson, R. Lindh

 Orbitals from record         2100.2

 Number of closed-shell orbitals: 10 (  8  2 )
 Number of occupied orbitals:     10 (  8  2 )

 Number of electrons= 20     Singlet     Space symmetry=1      Wavefunction type: CLOSED          


 McKinley needed      2.31 seconds of CPU time

 Entering CPHF calculation

 CPHF needed 137 iterations for 18 perturbations.  Total CPU time:    0.67 sec


 HF-SCF hessian saved to record  5300.2

 PROGRAM * FREQUENCIES (Calculation of harmonic vibrational spectra for HF-SCF)


 Permanent Dipole Moment [debye]
     1-   3    0.000000    0.000000    0.000000

 Dipole Moment Norm    0.0000000 [debye]

 Dipole Moment Derivatives [debye/ang]
              1             2             3             4             5             6             7             8
    1    0.00000000    0.00000000    0.00000000    0.00000000    0.00000000    0.00000000    0.00000000    0.00000000
    2    0.00000000    0.00000000    0.00000000    0.00000000    0.00000000    0.00000000    0.00000000    0.00000000
    3    0.00000000    0.00000000    0.00000000    0.00000000    0.00000000    0.00000000    0.00000000    0.00000000
              9            10            11            12            13            14            15            16
    1    0.00000000    0.00000000    0.00000000    0.00000000    0.00000000    0.00000000    0.00000000    0.00000000
    2    0.00000000    0.00000000    0.00000000    0.00000000    0.00000000    0.00000000    0.00000000    0.00000000
    3    0.00000000    0.00000000    0.00000000    0.00000000    0.00000000    0.00000000    0.00000000    0.00000000
             17            18
    1    0.00000000    0.00000000
    2    0.00000000    0.00000000
    3    0.00000000    0.00000000

 Projecting out rotations and translations

 Force Constants (Second Derivatives of the Energy) in [a.u.]
                             O1X1        O1Y1        O1Z1        H2X2        H2Y2    
           O1X1          0.5977534
           O1Y1          0.0000000   0.0043428
           O1Z1         -0.1124159  -0.0000000   0.7296440
           H2X2         -0.5248692   0.0000000   0.2393863   0.5192752
           H2Y2          0.0000000  -0.0008816  -0.0000000   0.0000000   0.0004676
           H2Z2          0.1766056   0.0000000  -0.1450461  -0.2302726  -0.0000000
           H3X3         -0.0755997   0.0000000  -0.1265783   0.0059393   0.0000000
           H3Y3         -0.0000000  -0.0064080  -0.0000000   0.0000000   0.0006852
           H3Z3         -0.0646154   0.0000000  -0.5779774  -0.0084597  -0.0000000
           O4X4          0.0037800  -0.0000000  -0.0004163  -0.0003604  -0.0000000
           O4Y4         -0.0000000   0.0045804   0.0000000  -0.0000000  -0.0006906
           O4Z4          0.0024418  -0.0000000  -0.0071911  -0.0008311   0.0000000
           H5X5         -0.0005323   0.0002108   0.0000121   0.0000076  -0.0001679
           H5Y5          0.0000209  -0.0008168  -0.0009803  -0.0000354   0.0002097
           H5Z5         -0.0010080  -0.0017042   0.0002853   0.0000885   0.0001369
           H6X6         -0.0005323  -0.0002108   0.0000121   0.0000076   0.0001679
           H6Y6         -0.0000209  -0.0008168   0.0009803   0.0000354   0.0002097
           H6Z6         -0.0010080   0.0017042   0.0002853   0.0000885  -0.0001369
                             H2Z2        H3X3        H3Y3        H3Z3        O4X4    
           H2Z2          0.1655356
           H3X3          0.0545465   0.0733401
           H3Y3         -0.0000000  -0.0000000   0.0111160
           H3Z3         -0.0197408   0.0718763  -0.0000000   0.6001334
           O4X4         -0.0010154  -0.0050055  -0.0000000   0.0017510   0.3388801
           O4Y4          0.0000000  -0.0000000  -0.0071661  -0.0000000  -0.0000000
           O4Z4         -0.0009813  -0.0040178   0.0000000  -0.0006166  -0.2541537
           H5X5          0.0000679   0.0006629  -0.0001620  -0.0002761  -0.1686472
           H5Y5          0.0000533  -0.0000822   0.0008865   0.0020160  -0.1905677
           H5Z5          0.0001163   0.0020866   0.0035341  -0.0008993   0.1269172
           H6X6          0.0000679   0.0006629   0.0001620  -0.0002761  -0.1686472
           H6Y6         -0.0000533   0.0000822   0.0008865  -0.0020160   0.1905677
           H6Z6          0.0001163   0.0020866  -0.0035341  -0.0008993   0.1269172
                             O4Y4        O4Z4        H5X5        H5Y5        H5Z5    
           O4Y4          0.8097274
           O4Z4         -0.0000000   0.2092553
           H5X5         -0.2413672   0.1282804   0.1568094
           H5Y5         -0.4032256   0.1437423   0.2160754   0.4353948
           H5Z5          0.1812694  -0.1002332  -0.1191615  -0.1640338   0.0937825
           H6X6          0.2413672   0.1282804   0.0116996  -0.0254110  -0.0089229
           H6Y6         -0.4032256  -0.1437423   0.0254110  -0.0324486  -0.0192024
           H6Z6         -0.1812694  -0.1002332  -0.0089229   0.0192024   0.0069483
                             H6X6        H6Y6        H6Z6    
           H6X6          0.1568094
           H6Y6         -0.2160754   0.4353948
           H6Z6         -0.1191615   0.1640338   0.0937825


 Atomic Masses
     1-   6   15.999400    2.014000    2.014000   15.999400    2.014000    2.014000

 Mass weighted Second Derivative Matrix
                             O1X1        O1Y1        O1Z1        H2X2        H2Y2    
           O1X1          0.0373610
           O1Y1          0.0000000   0.0002714
           O1Z1         -0.0070263  -0.0000000   0.0456045
           H2X2         -0.0924633   0.0000000   0.0421714   0.2578328
           H2Y2          0.0000000  -0.0001553  -0.0000000   0.0000000   0.0002322
           H2Z2          0.0311116   0.0000000  -0.0255520  -0.1143359  -0.0000000
           H3X3         -0.0133180   0.0000000  -0.0222986   0.0029490   0.0000000
           H3Y3         -0.0000000  -0.0011289  -0.0000000   0.0000000   0.0003402
           H3Z3         -0.0113829   0.0000000  -0.1018191  -0.0042004  -0.0000000
           O4X4          0.0002363  -0.0000000  -0.0000260  -0.0000635  -0.0000000
           O4Y4         -0.0000000   0.0002863   0.0000000  -0.0000000  -0.0001217
           O4Z4          0.0001526  -0.0000000  -0.0004495  -0.0001464   0.0000000
           H5X5         -0.0000938   0.0000371   0.0000021   0.0000038  -0.0000834
           H5Y5          0.0000037  -0.0001439  -0.0001727  -0.0000176   0.0001041
           H5Z5         -0.0001776  -0.0003002   0.0000503   0.0000439   0.0000680
           H6X6         -0.0000938  -0.0000371   0.0000021   0.0000038   0.0000834
           H6Y6         -0.0000037  -0.0001439   0.0001727   0.0000176   0.0001041
           H6Z6         -0.0001776   0.0003002   0.0000503   0.0000439  -0.0000680
                             H2Z2        H3X3        H3Y3        H3Z3        O4X4    
           H2Z2          0.0821924
           H3X3          0.0270837   0.0364151
           H3Y3         -0.0000000  -0.0000000   0.0055193
           H3Z3         -0.0098018   0.0356883  -0.0000000   0.2979808
           O4X4         -0.0001789  -0.0008818  -0.0000000   0.0003085   0.0211808
           O4Y4          0.0000000  -0.0000000  -0.0012624  -0.0000000  -0.0000000
           O4Z4         -0.0001729  -0.0007078   0.0000000  -0.0001086  -0.0158852
           H5X5          0.0000337   0.0003292  -0.0000805  -0.0001371  -0.0297096
           H5Y5          0.0000265  -0.0000408   0.0004402   0.0010010  -0.0335713
           H5Z5          0.0000578   0.0010361   0.0017548  -0.0004465   0.0223583
           H6X6          0.0000337   0.0003292   0.0000805  -0.0001371  -0.0297096
           H6Y6         -0.0000265   0.0000408   0.0004402  -0.0010010   0.0335713
           H6Z6          0.0000578   0.0010361  -0.0017548  -0.0004465   0.0223583
                             O4Y4        O4Z4        H5X5        H5Y5        H5Z5    
           O4Y4          0.0506099
           O4Z4         -0.0000000   0.0130789
           H5X5         -0.0425203   0.0225985   0.0778597
           H5Y5         -0.0710340   0.0253223   0.1072867   0.2161841
           H5Z5          0.0319332  -0.0176575  -0.0591666  -0.0814468   0.0465653
           H6X6          0.0425203   0.0225985   0.0058091  -0.0126172  -0.0044304
           H6Y6         -0.0710340  -0.0253223   0.0126172  -0.0161115  -0.0095345
           H6Z6         -0.0319332  -0.0176575  -0.0044304   0.0095345   0.0034500
                             H6X6        H6Y6        H6Z6    
           H6X6          0.0778597
           H6Y6         -0.1072867   0.2161841
           H6Z6         -0.0591666   0.0814468   0.0465653


 Mass Weighted 2nd Derivative Matrix Eigenvalues
     1-  10    0.000000    0.000000    0.000000    0.000000    0.000000    0.000000    0.000235    0.000366    0.000415    0.000997
    11-  18    0.002724    0.007309    0.062110    0.063794    0.331253    0.336280    0.360101    0.363913

 Mass Weighted 2nd Derivative Matrix Eigenvectors
              1             2             3             4             5             6             7             8
    1    0.00759496   -0.00966139   -0.00200294   -0.00509903    0.04508423    0.89799189    0.00000000   -0.04164718
    2    0.10671808   -0.06038200    0.03579340   -0.14075487    0.90610554   -0.04776322    0.00571364    0.00000000
    3   -0.20448088    0.55602294    0.11008436   -0.19295419    0.02527981   -0.02909922    0.00000000    0.26709507
    4    0.00363427   -0.01800974   -0.00408949   -0.03902064    0.01141028    0.35927625    0.00000000   -0.22092476
    5   -0.17770570   -0.18544608    0.52532456   -0.01687764    0.21335264   -0.01012782    0.49380114    0.00000000
    6   -0.07049285    0.16536699    0.03166400   -0.14988340   -0.00106435    0.07867393    0.00000000   -0.35497076
    7    0.00045172    0.03138043    0.00735496    0.08701781    0.02694138    0.22151376    0.00000000    0.45105067
    8    0.08792842   -0.01238132    0.11198261   -0.03822603    0.19206669   -0.01048699   -0.42219915    0.00000000
    9   -0.07218691    0.19165726    0.03775585   -0.08279343    0.00720282    0.00534328    0.00000000    0.01925858
   10   -0.01254230    0.30285017    0.07041072    0.79239718    0.14335582    0.02631290    0.00000000    0.16778799
   11    0.70806647    0.14584051    0.49467092   -0.06522284   -0.12910770    0.00279538   -0.17979808    0.00000000
   12   -0.20295407    0.53232827    0.10459394   -0.25342046    0.01782884    0.03699160    0.00000000    0.13984536
   13   -0.16470175   -0.01105607    0.48200204    0.34483858   -0.07812780   -0.01848588   -0.09954011   -0.29282856
   14    0.37697278    0.14348398   -0.09389812   -0.03979509   -0.00370586   -0.00189395    0.20952980    0.00299548
   15   -0.00699299    0.23418847    0.04780098   -0.04250027   -0.07127325   -0.02991127    0.46793503   -0.40563009
   16    0.15415587    0.25149977   -0.42612031    0.28262475    0.18788426   -0.03409199    0.09954011   -0.29282856
   17    0.37697278    0.14348398   -0.09389812   -0.03979509   -0.00370586   -0.00189395    0.20952980   -0.00299548
   18   -0.13919219    0.17723661    0.03422437   -0.05135142    0.09451847   -0.03781012   -0.46793503   -0.40563009
              9            10            11            12            13            14            15            16
    1    0.00000000   -0.01450803    0.06404412    0.00000000    0.01392129   -0.30850083   -0.19464492   -0.04337949
    2   -0.33108381    0.00000000    0.00000000   -0.17582492    0.00000000    0.00000000    0.00000000    0.00000000
    3    0.00000000   -0.59084276    0.17218673    0.00000000    0.01111226   -0.15349855   -0.19919274   -0.02971604
    4    0.00000000   -0.04661847   -0.21480507    0.00000000   -0.00940850    0.21921501    0.44475725    0.10527497
    5    0.60422839    0.00000000    0.00000000    0.05679981    0.00000000    0.00000000    0.00000000    0.00000000
    6    0.00000000   -0.30117410   -0.45332275    0.00000000   -0.02392108    0.58818793   -0.22799325   -0.05320376
    7    0.00000000    0.08833372    0.50109910    0.00000000   -0.02649710    0.67848967    0.10333852    0.01601312
    8    0.11934296    0.00000000    0.00000000    0.86522800    0.00000000    0.00000000    0.00000000    0.00000000
    9    0.00000000   -0.22373543   -0.01536645    0.00000000    0.00486600   -0.15665556    0.79157635    0.13853325
   10    0.00000000    0.03753356   -0.31600889    0.00000000    0.27671752   -0.00362164    0.04232500   -0.21494769
   11    0.03262652    0.00000000    0.00000000   -0.20026712    0.00000000    0.00000000    0.00000000    0.00000000
   12    0.00000000    0.66661208   -0.23925557    0.00000000   -0.22170372   -0.01711749   -0.03239512    0.16401566
   13   -0.35145658   -0.05330667    0.21193767   -0.01358563   -0.39163379   -0.00898961   -0.05938902    0.30340695
   14    0.05881920    0.00326056   -0.00388352    0.06899878    0.43483898    0.01830784   -0.10369325    0.54730120
   15   -0.35778589    0.15567584    0.32886225    0.28917310    0.30630634    0.02467672    0.04457671   -0.23192826
   16    0.35145658   -0.05330667    0.21193767    0.01358563   -0.39163379   -0.00898961   -0.05938902    0.30340695
   17    0.05881920   -0.00326056    0.00388352    0.06899878   -0.43483898   -0.01830784    0.10369325   -0.54730120
   18    0.35778589    0.15567584    0.32886225   -0.28917310    0.30630634    0.02467672    0.04457671   -0.23192826
             17            18
    1   -0.22408777    0.00000000
    2    0.00000000   -0.00024863
    3    0.28958773    0.00000000
    4    0.71746475    0.00000000
    5    0.00000000    0.00019110
    6   -0.33832787    0.00000000
    7   -0.08520117    0.00000000
    8    0.00000000    0.00011358
    9   -0.47820715    0.00000000
   10    0.00523780    0.00000000
   11    0.00000000   -0.37181140
   12   -0.00452104    0.00000000
   13   -0.00771458    0.31439362
   14   -0.01594696    0.52417819
   15    0.00653350   -0.23931561
   16   -0.00771458   -0.31439362
   17    0.01594696    0.52417819
   18    0.00653350    0.23931561

   Low Vibration      Wavenumber
        Nr             [1/cm] 
        1                0.00
        2                0.00
        3                0.00
        4                0.00
        5                0.00
        6                0.00

     Vibration        Wavenumber
        Nr             [1/cm] 
        1               78.73
        2               98.41
        3              104.68
        4              162.30
        5              268.28
        6              439.47
        7             1281.11
        8             1298.36
        9             2958.58
       10             2980.95
       11             3084.73
       12             3101.01

 FREQUENCIES * CALCULATION OF NORMAL MODES FOR HF-SCF


 Atomic Coordinates

  Nr  Atom  Charge       X              Y              Z

   1   O1    8.00   -0.222690112    0.000000000   -2.924849943
   2   H2    1.00    1.393587596    0.000000000   -3.663502544
   3   H3    1.00    0.061844998    0.000000000   -1.161626560
   4   O4    8.00    0.203157095    0.000000000    2.691695042
   5   H5    1.00   -0.650130260   -1.421847222    3.338666468
   6   H6    1.00   -0.650130260    1.421847222    3.338666468

 Gradient norm at reference geometry: 0.33557D-03

 Normal Modes

                              1 A``       2 A`        3 A``       4 A`        5 A` 
 Wavenumbers [cm-1]           78.73       98.41      104.68      162.30      268.28
 Intensities [km/mol]          0.00        0.00        0.00        0.00        0.00
 Intensities [relative]        0.00        0.00        0.00        0.00        0.00
           O1X1             0.00000    -0.01041     0.00000    -0.00363     0.01601
           O1Y1             0.00143     0.00000    -0.08277    -0.00000    -0.00000
           O1Z1            -0.00000     0.06678     0.00000    -0.14771     0.04305
           H2X2             0.00000    -0.15567    -0.00000    -0.03285    -0.15136
           H2Y2             0.34795    -0.00000     0.42577     0.00000    -0.00000
           H2Z2            -0.00000    -0.25013    -0.00000    -0.21222    -0.31943
           H3X3            -0.00000     0.31783     0.00000     0.06224     0.35310
           H3Y3            -0.29750    -0.00000     0.08409    -0.00000    -0.00000
           H3Z3            -0.00000     0.01357     0.00000    -0.15765    -0.01083
           O4X4            -0.00000     0.04195     0.00000     0.00938    -0.07900
           O4Y4            -0.04495    -0.00000     0.00816    -0.00000    -0.00000
           O4Z4            -0.00000     0.03496    -0.00000     0.16666    -0.05982
           H5X5            -0.07014    -0.20634    -0.24765    -0.03756     0.14934
           H5Y5             0.14764     0.00211     0.04145     0.00230    -0.00274
           H5Z5             0.32973    -0.28583    -0.25211     0.10970     0.23173
           H6X6             0.07014    -0.20634     0.24765    -0.03756     0.14934
           H6Y6             0.14764    -0.00211     0.04145    -0.00230     0.00274
           H6Z6            -0.32973    -0.28583     0.25211     0.10970     0.23173

                              6 A``       7 A`        8 A`        9 A`       10 A` 
 Wavenumbers [cm-1]          439.47     1281.11     1298.36     2958.58     2980.95
 Intensities [km/mol]          0.00        0.00        0.00        0.00        0.00
 Intensities [relative]        0.00        0.00        0.00        0.00        0.00
           O1X1             0.00000     0.00348    -0.07713    -0.04866    -0.01085
           O1Y1            -0.04396    -0.00000     0.00000    -0.00000    -0.00000
           O1Z1            -0.00000     0.00278    -0.03838    -0.04980    -0.00743
           H2X2            -0.00000    -0.00663     0.15447     0.31340     0.07418
           H2Y2             0.04002    -0.00000    -0.00000     0.00000    -0.00000
           H2Z2            -0.00000    -0.01686     0.41446    -0.16065    -0.03749
           H3X3             0.00000    -0.01867     0.47809     0.07282     0.01128
           H3Y3             0.60968    -0.00000    -0.00000    -0.00000     0.00000
           H3Z3            -0.00000     0.00343    -0.11039     0.55778     0.09762
           O4X4            -0.00000     0.06918    -0.00091     0.01058    -0.05374
           O4Y4            -0.05007     0.00000     0.00000    -0.00000    -0.00000
           O4Z4            -0.00000    -0.05543    -0.00428    -0.00810     0.04100
           H5X5            -0.00957    -0.27596    -0.00633    -0.04185     0.21379
           H5Y5             0.04862     0.30641     0.01290    -0.07307     0.38565
           H5Z5             0.20376     0.21584     0.01739     0.03141    -0.16343
           H6X6             0.00957    -0.27596    -0.00633    -0.04185     0.21379
           H6Y6             0.04862    -0.30641    -0.01290     0.07307    -0.38565
           H6Z6            -0.20376     0.21584     0.01739     0.03141    -0.16343

                             11 A`       12 A``
 Wavenumbers [cm-1]         3084.73     3101.01
 Intensities [km/mol]          0.00        0.00
 Intensities [relative]        0.00        0.00
           O1X1            -0.05602    -0.00000
           O1Y1            -0.00000    -0.00006
           O1Z1             0.07240     0.00000
           H2X2             0.50556     0.00000
           H2Y2             0.00000     0.00013
           H2Z2            -0.23840     0.00000
           H3X3            -0.06004    -0.00000
           H3Y3             0.00000     0.00008
           H3Z3            -0.33697    -0.00000
           O4X4             0.00131     0.00000
           O4Y4             0.00000    -0.09295
           O4Z4            -0.00113     0.00000
           H5X5            -0.00544     0.22154
           H5Y5            -0.01124     0.36936
           H5Z5             0.00460    -0.16863
           H6X6            -0.00544    -0.22154
           H6Y6             0.01124     0.36936
           H6Z6             0.00460     0.16863


 Normal Modes of low/zero frequencies

                                  1           2           3           4           5
 Wavenumbers [cm-1]            0.00        0.00        0.00        0.00        0.00
 Intensities [km/mol]          0.00        0.00        0.00        0.00        0.00
 Intensities [relative]        0.00        0.00        0.00        0.00        0.00
           O1X1             0.00190    -0.00242    -0.00050    -0.00127     0.01127
           O1Y1             0.02668    -0.01510     0.00895    -0.03519     0.22653
           O1Z1            -0.05112     0.13901     0.02752    -0.04824     0.00632
           H2X2             0.00256    -0.01269    -0.00288    -0.02750     0.00804
           H2Y2            -0.12522    -0.13067     0.37017    -0.01189     0.15034
           H2Z2            -0.04967     0.11652     0.02231    -0.10561    -0.00075
           H3X3             0.00032     0.02211     0.00518     0.06132     0.01898
           H3Y3             0.06196    -0.00872     0.07891    -0.02694     0.13534
           H3Z3            -0.05087     0.13505     0.02660    -0.05834     0.00508
           O4X4            -0.00314     0.07571     0.01760     0.19810     0.03584
           O4Y4             0.17702     0.03646     0.12367    -0.01631    -0.03228
           O4Z4            -0.05074     0.13308     0.02615    -0.06336     0.00446
           H5X5            -0.11606    -0.00779     0.33964     0.24299    -0.05505
           H5Y5             0.26563     0.10111    -0.06616    -0.02804    -0.00261
           H5Z5            -0.00493     0.16502     0.03368    -0.02995    -0.05022
           H6X6             0.10863     0.17722    -0.30026     0.19915     0.13239
           H6Y6             0.26563     0.10111    -0.06616    -0.02804    -0.00261
           H6Z6            -0.09808     0.12489     0.02412    -0.03618     0.06660

                                  6
 Wavenumbers [cm-1]            0.00
 Intensities [km/mol]          0.00
 Intensities [relative]        0.00
           O1X1             0.22450
           O1Y1            -0.01194
           O1Z1            -0.00727
           H2X2             0.25316
           H2Y2            -0.00714
           H2Z2             0.05544
           H3X3             0.15609
           H3Y3            -0.00739
           H3Z3             0.00377
           O4X4             0.00658
           O4Y4             0.00070
           O4Z4             0.00925
           H5X5            -0.01303
           H5Y5            -0.00133
           H5Z5            -0.02108
           H6X6            -0.02402
           H6Y6            -0.00133
           H6Z6            -0.02664


 Frequencies dumped to record   5400.2
 Frequency information read from record  5400.2

 Zero point energy:  0.03612403 [H]     7928.31 [1/CM]       94.84 [KJ/MOL]


 **********************************************************************************************************************************
 DATASETS  * FILE   NREC   LENGTH (MB)   RECORD NAMES
              1      19       31.35       500      610      700      900      950      970     1000      129      960     1100   
                                          VAR    BASINP    GEOM    SYMINP    ZMAT    AOBASIS   BASIS     P2S    ABASIS      S 
                                         1400     1410     1200     1210     1080     1600     1650     1300     1700   
                                           T        V       H0       H01     AOSYM     SMH    MOLCAS    ERIS     OPER   

              2       7        0.53       700     1000      520     2100     5300     5450     5400   
                                         GEOM     BASIS   MCVARS     RHF     HESS     NMOD     FREQ   

              4       5        0.53      4100     4000     4200     4300     4400   

 PROGRAMS   *        TOTAL      FREQ      OPTG    HF-SCF       INT
 CPU TIMES  *         6.37      2.99      2.94      0.07      0.22
 REAL TIME  *         6.80 SEC
 DISK USED  *        41.17 MB
 **********************************************************************************************************************************

 Dump information in style MOLDEN to d2o_dimer.molden                                                                

 Molecular orbitals read from record     2100.2  Type=RHF/CANONICAL  
 Occupation numbers read from record     2100.2  Type=RHF/RHF  
 Orbital energies read from record       2100.2  Type=RHF/CANONICAL  
 Redundancy group numbers read from rec  2100.2  Type=RHF/RHF  

 DUMP ORBITAL  1.1 AS ORBITAL    1  occ=    2.0000  eig=  -20.5718  GROUP=   2
 DUMP ORBITAL  2.1 AS ORBITAL    2  occ=    2.0000  eig=  -20.5101  GROUP=   2
 DUMP ORBITAL  3.1 AS ORBITAL    3  occ=    2.0000  eig=   -1.3777  GROUP=   2
 DUMP ORBITAL  4.1 AS ORBITAL    4  occ=    2.0000  eig=   -1.3193  GROUP=   2
 DUMP ORBITAL  1.2 AS ORBITAL    5  occ=    2.0000  eig=   -0.7458  GROUP=   2
 DUMP ORBITAL  5.1 AS ORBITAL    6  occ=    2.0000  eig=   -0.6925  GROUP=   2
 DUMP ORBITAL  6.1 AS ORBITAL    7  occ=    2.0000  eig=   -0.6036  GROUP=   2
 DUMP ORBITAL  7.1 AS ORBITAL    8  occ=    2.0000  eig=   -0.5487  GROUP=   2
 DUMP ORBITAL  8.1 AS ORBITAL    9  occ=    2.0000  eig=   -0.5237  GROUP=   2
 DUMP ORBITAL  2.2 AS ORBITAL   10  occ=    2.0000  eig=   -0.4725  GROUP=   2

 Total charge:      20.000000
 Frequency information read from record  5400.2

 **********************************************************************************************************************************

 HF/6-311G(D,P)//HF/6-311G(D,P) energy=   -152.102901471739

    OPTG(HF-SCF)          HF-SCF
   -152.10290147   -152.10148026
 **********************************************************************************************************************************
 Molpro calculation terminated
