[Molden Format]
[Molpro variables]
_NUMVAR=  1100.000000000000    
_AVOGAD= 0.6022140760000000E+24
_BOLTZ= 0.1380649000000000E-22
_CLIGHTSI=  299792458.0000000    
_JOULE= 0.4359744722207100E-17
_JPCAL=  4.184000000000000    
_PLANCK= 0.6626070150000000E-33
_BOHR= 0.5291772109030000E-10
_ECHARG= 0.1602176634000000E-18
_ENULL= 0.8854187812800001E-11
_MU= 0.1660539066600000E-26
_EMASS= 0.9109383701500001E-30
_AMU2AU=  1822.888486217313    
_CLIGHT=  29979245800.00000    
_EV= 0.3674932217565494E-01
_KJOULE= 0.3808798847133432E-03
_KJOULE/MOL= 0.3808798847133432E-03
_CM= 0.4556335252912009E-05
_CM-1= 0.4556335252912009E-05
_DEB2SI= 0.3335640951981520E-29
_KCAL= 0.1593601437640628E-02
_KCAL/MOL= 0.1593601437640628E-02
_KELVIN= 0.3166811563455608E-05
_HERTZ= 0.1519829846057038E-15
_HZ= 0.1519829846057038E-15
_TOA= 0.5291772109030000    
_TOANG= 0.5291772109030000    
_TORAD= 0.1745329251994330E-01
_TOCM=  219474.6313631965    
_TODEBYE=  2.541746473194078    
_TOE= 0.4803204712570263E-09
_TOEV=  27.21138624598803    
_TOHERTZ=  6579683920501656.    
_TOHZ=  6579683920501656.    
_TOK=  315775.0248040668    
_TOKCAL=  627.5094740630558    
_TOKELVIN=  315775.0248040668    
_TOKJ=  2625.499639479825    
_TOKJOULE=  2625.499639479825    
_TOKG= 0.1660539066600000E-26
_ANG=  1.889726124625770    
_ANGSTROM=  1.889726124625770    
_RPAREF=  0.000000000000000    
_RPADISS=  0.000000000000000    
_IGNORE_UNDEF=  2.000000000000000    
_STRICTCHECK=  0.000000000000000    
!SEWARD=  0.000000000000000    
!MULTI=  0.000000000000000    
!DFMULTI=  0.000000000000000    
!NUMHESS=  0.000000000000000    
_SEW_ONEEL=  0.000000000000000    
_CPPDONE=FALSE
_DKROLL_DONE=  0.000000000000000    
_FNUC_DONE=  0.000000000000000    
_FOCKDONE=TRUE
_GRADONE=FALSE
_HESSDONE=TRUE
_INTDONE=TRUE
_SCFDONE=TRUE
_MODUL_BLOCK=FALSE
_MODUL_SLATER=TRUE
_MODUL_MRCC=FALSE
_MODUL_NBO6=FALSE
_MODUL_NECI=FALSE
_MODUL_AIMS=TRUE
_MODUL_HDF5=FALSE
_MODUL_GECCO=FALSE
_ISWINDOWS=FALSE
_MRCC_EXEC=
_FITC_AO_SAVED=FALSE
_FITC_MO_SAVED=FALSE
_LSTYP=SEWARD
_INTYP=INTS
_GEOMTYP=XYZ
_GRADTYP=ALASKA
_DIRECT=FALSE
_DKHO= -1.000000000000000    
_FNUC=  0.000000000000000    
_SYNCM=  0.000000000000000    
_BASIS=6-311G(D,P)
_ZCENTRE=MASS
_ZORIENT=  1.000000000000000    
_NELEC=  48.00000000000000    
!SPIN=  0.000000000000000    
_OPTCONV= 0.3144902084555499E-02
_QSDSTEP=  0.000000000000000    
_QSDIRC=  0.000000000000000    
_PROGRAM=FREQ
_CPUSTEP=  63.78000000000001    
_SYSSTEP=  2.140000000000000    
_WALLSTEP=  65.93000000000001    
!DFSCF=  0.000000000000000    
!SCSGRD=  0.000000000000000    
_NCEN=  10.00000000000000    
_CPUTOT=  117.0000000000000    
_DFTEXFAC=  1.000000000000000    
_DMX=  0.000000000000000    
_DMY=  0.000000000000000    
_DMZ=  0.000000000000000    
_DMX_SCF=  0.000000000000000    
_DMY_SCF=  0.000000000000000    
_DMZ_SCF=  0.000000000000000    
_FREQUENCIES= 0.2268814278839917E-04
_HOMO=  10.30000000000000    
_EHOMO=-0.4706730530696002    
_LUMO=  3.200000000000000    
_ELUMO= 0.1701473776828918    
_ENERGY= -377.6641123927704    
_ENERGY_METHOD=HF
_ENERGY_BASIS=6-311G(D,P)
_GEOMETRY_METHOD=HF
_GEOMETRY_BASIS=6-311G(D,P)
_ENUC=  235.1563632463053    
_GRADENERG= -377.6641120124274    
_GRADEXFAC=  9999.000000000000    
_GRADMETHOD=  1.000000000000000    
_NMRMETHOD=  0.000000000000000    
_NMRMAGNET=  0.000000000000000    
_VIRIAL= 0.3260639787615013E-03
!GRID_FREEZE= -1.000000000000000    
!NEESE_INDEX=  0.000000000000000    
_ITERATIONS=  11.00000000000000    
_LASTNELEC=  48.00000000000000    
_LASTSPIN=  0.000000000000000    
_LASTSYM=  1.000000000000000    
_MPP_PROG=  0.000000000000000    
_MSNSTATES=  0.000000000000000    
_RS2PHASE=  0.000000000000000    
_NPROC_MPP=  1.000000000000000    
_NPROC_SMP=  6.000000000000000    
_NUMSTEP=  0.000000000000000    
_OPTCONVMX= 0.2178189082496165E-02
_OPTCONVRMS= 0.1048300694851833E-02
_OPTGRAD= 0.3039396106092636E-03
_OPTGRADMX= 0.1963082353939749E-03
_OPTGRADRMS= 0.1013132035364212E-03
!GMAXLAST= 0.1963082353939749E-03
!DMAXLAST= 0.2178189082496165E-02
!DELAST= 0.3632290486166312E-05
_OPTSTEP=  10.00000000000000    
_ORBITAL=  2100.200000000000    
_PI=  3.141592653589793    
_SEIG_MIN= 0.7154801781693658E-02
_SEWPROP=TRUE
_STATUS=  1.000000000000000    
_SYSTOT=  4.990000000000000    
_VERSION=  2024001.000000000    
_WALLTOT=  122.0300000000000    
_ZPE= 0.7695142235788210E-01
_DATE=30-Sep-24
_LASTORB=0
_OUTPUT=/home/lme/Theoretische_Chemie/Nomodeco/ase_databank_integration/formic_acid_dimer/Formic_acid_dimer.molpro/run/Formic_acid_dimer_1.molpro/Formic_acid_dimer_1.out
_PGROUP=C2h
_TIME=13:03:16
_LIBMOL=/usr/local/molpro/molpro_2024.1.0_sockets/lib/
_VIGRDC=  0.000000000000000    
!VIBCNT=  0.000000000000000    
!SURFREC=  0.000000000000000    
!XSURFREC=  0.000000000000000    
!XPOLYREC=  0.000000000000000    
!ROTREC=  0.000000000000000    
!POLYREC=  0.000000000000000    
!DIPREC=  0.000000000000000    
!DIP4DREC=  0.000000000000000    
!DIPROT=  0.000000000000000    
!DIP4DROT=  0.000000000000000    
!PTREC=  0.000000000000000    
!PT4DREC=  0.000000000000000    
!VSCFREC=  0.000000000000000    
!VCIREC=  0.000000000000000    
!PVCIREC=  0.000000000000000    
!VMP2REC=  0.000000000000000    
!VMCSCFREC=  0.000000000000000    
!VMRCIREC=  0.000000000000000    
!VIBSTATEREC=  0.000000000000000    
!VIBSTATECNT=  0.000000000000000    
!VIBINFO=  0.000000000000000    
!GAREC=  0.000000000000000    
!SCFORB=  21002.00000000000    
!DEFCORE=  3.000000000000000    
!SCORE=  0.000000000000000    
!NEWMOL=  0.000000000000000    
!NEWSYM=  0.000000000000000    
_SLFILES=slscratch
_NGSSTO=  9.000000000000000    
_SIN=SIN
_COS=COS
_TAN=TAN
_ACOS=ACOS
_ASIN=ASIN
_ATAN=ATAN
_COSH=COSH
_SINH=SINH
_TANH=TANH
_ABS=ABS
_MOD=MOD
_ERF=ERF
_REFC=REFC
_ERFC=ERFC
_HYPOT=HYPOT
_J0=J0
_J1=J1
_JN=JN
_GAMMA=GAMMA
_LGAMMA=LGAMMA
_Y0=Y0
_Y1=Y1
_YN=YN
_EXP=EXP
_LOG=LOG
_LOG10=LOG10
_SQRT=SQRT
_INT=INT
_NINT=NINT
_MAX=MAX
_MIN=MIN
_COSMO=  0.000000000000000    
_COSMOIT=  0.000000000000000    
_COSMOES=  0.000000000000000    
_COSMOEDS=  0.000000000000000    
_COSMOEC=  0.000000000000000    
_COSMOEDCORR=  0.000000000000000    
_FEPSI=  1.000000000000000    
_SL_IsMM=  0.000000000000000    
_SL_NSYM=  4.000000000000000    
_SL_System_BitSw=  0.000000000000000    
_SL_Unique_atoms=  0.000000000000000    
_SL_GRAD=  0.000000000000000    
_SL_MAXUPD_Hess=  5.000000000000000    
_SL_N_PRINT_COD=  5.000000000000000    
_SL_PRINT_CODES=  0.000000000000000    
_SL_BasType=  0.000000000000000    
_SL_Energy_Pred=  0.000000000000000    
_SL_New_Coords=  0.000000000000000    
_SL_Total_Nuclea=  0.000000000000000    
_SL_Highest_Mltp=  0.000000000000000    
_SL_Ref_Geom=  0.000000000000000    
_SL_Symmetry_ope=  1.000000000000000    
_SL_agrad=  0.000000000000000    
_SL_GrdMax=  0.000000000000000    
_SL_GrdNorm=  0.000000000000000    
_SL_GrdRMS=  0.000000000000000    
_SL_Hss_Q=  0.000000000000000    
_SL_Hss_X=  0.000000000000000    
_SL_BMxOld=  0.000000000000000    
_SL_KtB=  0.000000000000000    
_SL_TROld=  0.000000000000000    
_SL_No_of_Intern=  0.000000000000000    
_SL_Hess=  0.000000000000000    
_SL_K=  0.000000000000000    
!LATTICE= -1.000000000000000    
!NEWLATTICE=  0.000000000000000    
!LATGRAD_VAR=FALSE
!SEW_LATTICE=  1.000000000000000    
!AIC_ONEEL=  0.000000000000000    
!LOCAL=  0.000000000000000    
!SAVEDOM= -1.000000000000000    
!RESTDOM= -1.000000000000000    
!SAVEDOM_HF= -1.000000000000000    
!RESTDOM_HF= -1.000000000000000    
!HESSREC=  5300.200000000000    
!FREQREC=  5400.200000000000    
!NMODREC=  5450.200000000000    
!GTASKS=  0.000000000000000    
!HTASKS=  0.000000000000000    
!SAVEDOM_EOM= -1.000000000000000    
!RESTDOM_EOM= -1.000000000000000    
!GRADSTATE= -1.000000000000000    
!DEBUG=  0.000000000000000    
!CFIT_CPHF=  0.000000000000000    
!RDOMAUX_CPHF=  0.000000000000000    
!THRAO_CPHF= 0.1000000000000000E-11
!THRMO_CPHF= 0.1000000000000000E-11
!THROV_CPHF= 0.1000000000000000E-13
!THRSW_CPHF= 0.1000000000000000E-11
!THRPROD_CPHF= 0.1000000000000000E-11
!THRAOPR_CPHF= 0.1000000000000000E-11
!CFIT_SCFGRD=  0.000000000000000    
!RDOMAUX_SCFGRD=  0.000000000000000    
!THRAO_SCFGRD= 0.1000000000000000E-11
!THRMO_SCFGRD= 0.1000000000000000E-11
!THROV_SCFGRD= 0.1000000000000000E-13
!THRSW_SCFGRD= 0.1000000000000000E-11
!THRPROD_SCFGRD= 0.1000000000000000E-11
!THRAOPR_SCFGRD= 0.1000000000000000E-11
!LOCFIT_SCF=  0.000000000000000    
!LOCFIT_MP2=  0.000000000000000    
_RIDOM=  0.000000000000000    
!CC2_METHOD=  0.000000000000000    
_BASIS2006=FALSE
_SVDDEL= -1.000000000000000    
_SVDDELA= -1.000000000000000    
_SVDDELP= -1.000000000000000    
_SVDDELF= -1.000000000000000    
_SVDDELS= -1.000000000000000    
_SVDDEL_ABS= -1.000000000000000    
_SVDDELA_ABS= -1.000000000000000    
_SVDDELP_ABS= -1.000000000000000    
_SVDDELF_ABS= -1.000000000000000    
_SVDDELS_ABS= -1.000000000000000    
_MAXBASIS=  0.000000000000000    
!OPT_CONICAL=  0.000000000000000    
!CLEARSP_JGRID=  0.000000000000000    
_GRDHYBR=  0.000000000000000    
_STATEGRAD=  1.000000000000000    
_4EXT_NDISKS=  1.000000000000000    
!EMBEDFLAG=  1.000000000000000    
!EMBED=FALSE
!EMBED_F12=FALSE
!EMBEDNUC=  0.000000000000000    
_EMBEDENERGY=  0.000000000000000    
!EMBED_DFC=FALSE
!NUM_VOIDS=  0.000000000000000    
_IBODY=  0.000000000000000    
_EMBE_CORR=  0.000000000000000    
!EMBED_PROJ=FALSE
!EMB_PROJ_ZMU=  1000000.000000000    
!CORRECTION_HF=  0.000000000000000    
!EMBED_AORB=  0.000000000000000    
!EMBED_NACORR=  0.000000000000000    
!EMBED_MP2=FALSE
!EMBED_TRUNC_PERTURBATION=FALSE
!EMBED_FROZEN=  0.000000000000000    
!EMBED_ACTIVE=  0.000000000000000    
_CHANGE_BASIS=FALSE
_RESTORE_BASIS=FALSE
_FIX_EMBED_GUESS=FALSE
_EMBED_SCF=FALSE
_NEOBAS=FALSE
_NEOOVE=FALSE
_PRINEO=FALSE
_HUZINAGA_T=FALSE
_HUZINAGA_F=FALSE
_HUZINAGA=FALSE
_HUZINAGA_CORRECT=FALSE
!FASTLATGRAD=  1.000000000000000    
!FASTVLAMBDA= -1.000000000000000    
!IFORCE= -1.000000000000000    
!USESYM= -1.000000000000000    
_SINDEX=  0.000000000000000    
_AVDOM_OSV=  0.000000000000000    
_AVDOM_PNO=  0.000000000000000    
_AVDOM_PNOCC=  0.000000000000000    
_AVDOM_TNO=  0.000000000000000    
_AVDOM_TNOIT=  0.000000000000000    
_AVDOM_PAO=  0.000000000000000    
_AVDOM_LMO=  0.000000000000000    
_CC2OSV_FLAG=  0.000000000000000    
_EOMCCSD_CONV=FALSE
_TMADC2_FLAG=FALSE
_PROPADC2_FLAG=FALSE
_LEN_VirQ=  0.000000000000000    
_GRDCC2LR_FLAG=FALSE
_GRDADC2_FLAG=FALSE
_RO_VGLOBAL=  0.000000000000000    
_OPT=FALSE
_FREQ=FALSE
_HESS=FALSE
_CMRCC_callName=EMPTY
_CMRCC_callCount=  0.000000000000000    
_GECCO_CIROOT=  1.000000000000000    
_SYM_CATION=  3.000000000000000    
_MON_A=FALSE
_MON_B=FALSE
_MAXGEOM=  100.0000000000000    
!MAXGEOM=  100.0000000000000    
_NCORE=  0.000000000000000    
_NLARGECORE=  0.000000000000000    
GX1=  0.000000000000000    
GY1= -1.939297933143356    
GZ1=-0.2268940805613471    
GX2=  0.000000000000000    
GY2= -1.627813011840309    
GZ2=  1.033171573091466    
GX3=  0.000000000000000    
GY3= -1.171224890363714    
GZ3= -1.135660726520246    
GX4=  0.000000000000000    
GY4= -3.014596785312611    
GZ4=-0.3717225591317434    
GX5=  0.000000000000000    
GY5=-0.6755491363124706    
GZ5=  1.151818558923850    
GX6=  0.000000000000000    
GY6=  1.939297933143356    
GZ6= 0.2268940805613471    
GX7=  0.000000000000000    
GY7=  1.627813011840310    
GZ7= -1.033171573091466    
GX8=  0.000000000000000    
GY8=  1.171224890363714    
GZ8=  1.135660726520246    
GX9=  0.000000000000000    
GY9=  3.014596785312611    
GZ9= 0.3717225591317434    
GX10=  0.000000000000000    
GY10= 0.6755491363124708    
GZ10= -1.151818558923850    
CX1=  0.000000000000000    
CY1= -3.664741967693760    
CZ1=-0.4287676715597217    
OX2=  0.000000000000000    
OY2= -3.076120774480391    
OZ2=  1.952411312891647    
OX3=  0.000000000000000    
OY3= -2.213294273132265    
OZ3= -2.146087743616792    
HX4=  0.000000000000000    
HY4= -5.696762300418105    
HZ4=-0.7024538311040032    
HX5=  0.000000000000000    
HY5= -1.276602851358051    
HZ5=  2.176621621627207    
CX6=  0.000000000000000    
CY6=  3.664741967693760    
CZ6= 0.4287676715597217    
OX7=  0.000000000000000    
OY7=  3.076120774480391    
OZ7= -1.952411312891647    
OX8=  0.000000000000000    
OY8=  2.213294273132265    
OZ8=  2.146087743616792    
HX9=  0.000000000000000    
HY9=  5.696762300418105    
HZ9= 0.7024538311040032    
HX10=  0.000000000000000    
HY10=  1.276602851358051    
HZ10= -2.176621621627207    
[Atoms] Angs
C     1    6         0.0000000000       -1.9392979331       -0.2268940806
O     2    8         0.0000000000       -1.6278130118        1.0331715731
O     3    8         0.0000000000       -1.1712248904       -1.1356607265
H     4    1         0.0000000000       -3.0145967853       -0.3717225591
H     5    1         0.0000000000       -0.6755491363        1.1518185589
C     6    6         0.0000000000        1.9392979331        0.2268940806
O     7    8         0.0000000000        1.6278130118       -1.0331715731
O     8    8         0.0000000000        1.1712248904        1.1356607265
H     9    1         0.0000000000        3.0145967853        0.3717225591
H    10    1         0.0000000000        0.6755491363       -1.1518185589
[GTO]
   1 0
 s    6  1.00
  0.4563240000D+04  0.1966650249D-02
  0.6820240000D+03  0.1523060193D-01
  0.1549730000D+03  0.7612690966D-01
  0.4445530000D+02  0.2608010331D+00
  0.1302900000D+02  0.6164620782D+00
  0.1827730000D+01  0.2210060280D+00
 s    3  1.00
  0.2096420000D+02  0.1146600807D+00
  0.4803310000D+01  0.9199996477D+00
  0.1459330000D+01 -0.3030682134D-02
 s    1  1.00
  0.4834560000D+00  0.1000000000D+01
 s    1  1.00
  0.1455850000D+00  0.1000000000D+01
 p    3  1.00
  0.2096420000D+02  0.4024869267D-01
  0.4803310000D+01  0.2375939567D+00
  0.1459330000D+01  0.8158538515D+00
 p    1  1.00
  0.4834560000D+00  0.1000000000D+01
 p    1  1.00
  0.1455850000D+00  0.1000000000D+01
 d    1  1.00
  0.6260000000D+00  0.1000000000D+01
  
   6 0
 s    6  1.00
  0.4563240000D+04  0.1966650249D-02
  0.6820240000D+03  0.1523060193D-01
  0.1549730000D+03  0.7612690966D-01
  0.4445530000D+02  0.2608010331D+00
  0.1302900000D+02  0.6164620782D+00
  0.1827730000D+01  0.2210060280D+00
 s    3  1.00
  0.2096420000D+02  0.1146600807D+00
  0.4803310000D+01  0.9199996477D+00
  0.1459330000D+01 -0.3030682134D-02
 s    1  1.00
  0.4834560000D+00  0.1000000000D+01
 s    1  1.00
  0.1455850000D+00  0.1000000000D+01
 p    3  1.00
  0.2096420000D+02  0.4024869267D-01
  0.4803310000D+01  0.2375939567D+00
  0.1459330000D+01  0.8158538515D+00
 p    1  1.00
  0.4834560000D+00  0.1000000000D+01
 p    1  1.00
  0.1455850000D+00  0.1000000000D+01
 d    1  1.00
  0.6260000000D+00  0.1000000000D+01
  
   2 0
 s    6  1.00
  0.8588500000D+04  0.1895150083D-02
  0.1297230000D+04  0.1438590063D-01
  0.2992960000D+03  0.7073200310D-01
  0.8737710000D+02  0.2400010105D+00
  0.2567890000D+02  0.5947970261D+00
  0.3740040000D+01  0.2808020123D+00
 s    3  1.00
  0.4211750000D+02  0.1138890124D+00
  0.9628370000D+01  0.9208111006D+00
  0.2853320000D+01 -0.3274470358D-02
 s    1  1.00
  0.9056610000D+00  0.1000000000D+01
 s    1  1.00
  0.2556110000D+00  0.1000000000D+01
 p    3  1.00
  0.4211750000D+02  0.3651139738D-01
  0.9628370000D+01  0.2371529830D+00
  0.2853320000D+01  0.8197019412D+00
 p    1  1.00
  0.9056610000D+00  0.1000000000D+01
 p    1  1.00
  0.2556110000D+00  0.1000000000D+01
 d    1  1.00
  0.1292000000D+01  0.1000000000D+01
  
   7 0
 s    6  1.00
  0.8588500000D+04  0.1895150083D-02
  0.1297230000D+04  0.1438590063D-01
  0.2992960000D+03  0.7073200310D-01
  0.8737710000D+02  0.2400010105D+00
  0.2567890000D+02  0.5947970261D+00
  0.3740040000D+01  0.2808020123D+00
 s    3  1.00
  0.4211750000D+02  0.1138890124D+00
  0.9628370000D+01  0.9208111006D+00
  0.2853320000D+01 -0.3274470358D-02
 s    1  1.00
  0.9056610000D+00  0.1000000000D+01
 s    1  1.00
  0.2556110000D+00  0.1000000000D+01
 p    3  1.00
  0.4211750000D+02  0.3651139738D-01
  0.9628370000D+01  0.2371529830D+00
  0.2853320000D+01  0.8197019412D+00
 p    1  1.00
  0.9056610000D+00  0.1000000000D+01
 p    1  1.00
  0.2556110000D+00  0.1000000000D+01
 d    1  1.00
  0.1292000000D+01  0.1000000000D+01
  
   3 0
 s    6  1.00
  0.8588500000D+04  0.1895150083D-02
  0.1297230000D+04  0.1438590063D-01
  0.2992960000D+03  0.7073200310D-01
  0.8737710000D+02  0.2400010105D+00
  0.2567890000D+02  0.5947970261D+00
  0.3740040000D+01  0.2808020123D+00
 s    3  1.00
  0.4211750000D+02  0.1138890124D+00
  0.9628370000D+01  0.9208111006D+00
  0.2853320000D+01 -0.3274470358D-02
 s    1  1.00
  0.9056610000D+00  0.1000000000D+01
 s    1  1.00
  0.2556110000D+00  0.1000000000D+01
 p    3  1.00
  0.4211750000D+02  0.3651139738D-01
  0.9628370000D+01  0.2371529830D+00
  0.2853320000D+01  0.8197019412D+00
 p    1  1.00
  0.9056610000D+00  0.1000000000D+01
 p    1  1.00
  0.2556110000D+00  0.1000000000D+01
 d    1  1.00
  0.1292000000D+01  0.1000000000D+01
  
   8 0
 s    6  1.00
  0.8588500000D+04  0.1895150083D-02
  0.1297230000D+04  0.1438590063D-01
  0.2992960000D+03  0.7073200310D-01
  0.8737710000D+02  0.2400010105D+00
  0.2567890000D+02  0.5947970261D+00
  0.3740040000D+01  0.2808020123D+00
 s    3  1.00
  0.4211750000D+02  0.1138890124D+00
  0.9628370000D+01  0.9208111006D+00
  0.2853320000D+01 -0.3274470358D-02
 s    1  1.00
  0.9056610000D+00  0.1000000000D+01
 s    1  1.00
  0.2556110000D+00  0.1000000000D+01
 p    3  1.00
  0.4211750000D+02  0.3651139738D-01
  0.9628370000D+01  0.2371529830D+00
  0.2853320000D+01  0.8197019412D+00
 p    1  1.00
  0.9056610000D+00  0.1000000000D+01
 p    1  1.00
  0.2556110000D+00  0.1000000000D+01
 d    1  1.00
  0.1292000000D+01  0.1000000000D+01
  
   4 0
 s    3  1.00
  0.3386500000D+02  0.2549381454D-01
  0.5094790000D+01  0.1903731086D+00
  0.1158790000D+01  0.8521614860D+00
 s    1  1.00
  0.3258400000D+00  0.1000000000D+01
 s    1  1.00
  0.1027410000D+00  0.1000000000D+01
 p    1  1.00
  0.7500000000D+00  0.1000000000D+01
  
   9 0
 s    3  1.00
  0.3386500000D+02  0.2549381454D-01
  0.5094790000D+01  0.1903731086D+00
  0.1158790000D+01  0.8521614860D+00
 s    1  1.00
  0.3258400000D+00  0.1000000000D+01
 s    1  1.00
  0.1027410000D+00  0.1000000000D+01
 p    1  1.00
  0.7500000000D+00  0.1000000000D+01
  
   5 0
 s    3  1.00
  0.3386500000D+02  0.2549381454D-01
  0.5094790000D+01  0.1903731086D+00
  0.1158790000D+01  0.8521614860D+00
 s    1  1.00
  0.3258400000D+00  0.1000000000D+01
 s    1  1.00
  0.1027410000D+00  0.1000000000D+01
 p    1  1.00
  0.7500000000D+00  0.1000000000D+01
  
  10 0
 s    3  1.00
  0.3386500000D+02  0.2549381454D-01
  0.5094790000D+01  0.1903731086D+00
  0.1158790000D+01  0.8521614860D+00
 s    1  1.00
  0.3258400000D+00  0.1000000000D+01
 s    1  1.00
  0.1027410000D+00  0.1000000000D+01
 p    1  1.00
  0.7500000000D+00  0.1000000000D+01


[MO]
 Sym=      1.1
 Ene=     -20.6082
 Spin= Alpha
 Occup=    2.000000
1 -0.000002180754768
2 -0.000027928603278
3 0.000121553446820
4 0.000214287942221
5 0.0
6 0.000002128152658
7 0.000035883275871
8 0.0
9 0.000080252975748
10 0.000213287108289
11 0.0
12 -0.000067526318705
13 0.000292887390885
14 -0.000016982497616
15 -0.000034492021945
16 0.000051474519561
17 0.0
18 0.0
19 0.000086560737412
20 -0.000002180754768
21 -0.000027928603278
22 0.000121553446820
23 0.000214287942221
24 0.0
25 -0.000002128152658
26 -0.000035883275871
27 0.0
28 -0.000080252975748
29 -0.000213287108289
30 0.0
31 0.000067526318705
32 -0.000292887390885
33 -0.000016982497616
34 -0.000034492021945
35 0.000051474519561
36 0.0
37 0.0
38 0.000086560737412
39 0.38991128337609
40 0.33350496078466
41 0.004094418674308
42 -0.000758498268546
43 0.0
44 0.000665879122185
45 -0.000932823654987
46 0.0
47 -0.000238074289527
48 0.000311378308248
49 0.0
50 0.000080708174283
51 0.000082659856213
52 0.000024851800278
53 0.000006079609330
54 -0.000030931409608
55 0.0
56 0.0
57 -0.000036730098875
58 0.38991128337609
59 0.33350496078466
60 0.004094418674308
61 -0.000758498268546
62 0.0
63 -0.000665879122185
64 0.000932823654987
65 0.0
66 0.000238074289527
67 -0.000311378308248
68 0.0
69 -0.000080708174283
70 -0.000082659856213
71 0.000024851800278
72 0.000006079609330
73 -0.000030931409608
74 0.0
75 0.0
76 -0.000036730098875
77 -0.000193324455247
78 -0.000167694810027
79 0.000015593070201
80 0.000086928773654
81 0.0
82 -0.000008518544706
83 -0.000010829860710
84 0.0
85 0.000011697710047
86 0.000023857363093
87 0.0
88 -0.000144236508892
89 -0.000028184743001
90 -0.000002629975651
91 0.000004990077047
92 -0.000002360101396
93 0.0
94 0.0
95 -0.000014300577357
96 -0.000193324455247
97 -0.000167694810027
98 0.000015593070201
99 0.000086928773654
100 0.0
101 0.000008518544706
102 0.000010829860710
103 0.0
104 -0.000011697710047
105 -0.000023857363093
106 0.0
107 0.000144236508892
108 0.000028184743001
109 -0.000002629975651
110 0.000004990077047
111 -0.000002360101396
112 0.0
113 0.0
114 -0.000014300577357
115 0.000007828395269
116 -0.000043555069414
117 -0.000022964031802
118 0.0
119 0.000012212845130
120 -0.000012804267235
121 0.000007828395269
122 -0.000043555069414
123 -0.000022964031802
124 0.0
125 -0.000012212845130
126 0.000012804267235
127 0.000120560572348
128 0.000102179093074
129 0.000124483719177
130 0.0
131 -0.000021245759294
132 -0.000046291653974
133 0.000120560572348
134 0.000102179093074
135 0.000124483719177
136 0.0
137 0.000021245759294
138 0.000046291653974
 Sym=      1.3
 Ene=     -20.6082
 Spin= Alpha
 Occup=    2.000000
1 -0.000002140892640
2 -0.000027443400273
3 0.000132753536115
4 0.000306174544202
5 0.0
6 0.000007910758346
7 0.000040186154086
8 0.0
9 0.000065323399159
10 0.000190155376254
11 0.0
12 0.000032582688434
13 0.000210407310418
14 -0.000021345857132
15 -0.000042233267230
16 0.000063579124362
17 0.0
18 0.0
19 0.000091623000836
20 0.000002140892640
21 0.000027443400273
22 -0.000132753536115
23 -0.000306174544202
24 0.0
25 0.000007910758346
26 0.000040186154086
27 0.0
28 0.000065323399159
29 0.000190155376254
30 0.0
31 0.000032582688434
32 0.000210407310418
33 0.000021345857132
34 0.000042233267230
35 -0.000063579124362
36 0.0
37 0.0
38 -0.000091623000836
39 0.38991135056821
40 0.33350592657816
41 0.004089725971930
42 -0.000755223015846
43 0.0
44 0.000664756040209
45 -0.000932710392239
46 0.0
47 -0.000235335601897
48 0.000312395928647
49 0.0
50 0.000044377949710
51 0.000079368358867
52 0.000026787179326
53 0.000002748646167
54 -0.000029535825493
55 0.0
56 0.0
57 -0.000037280386382
58 -0.38991135056821
59 -0.33350592657816
60 -0.004089725971930
61 0.000755223015846
62 0.0
63 0.000664756040209
64 -0.000932710392239
65 0.0
66 -0.000235335601897
67 0.000312395928647
68 0.0
69 0.000044377949710
70 0.000079368358867
71 -0.000026787179326
72 -0.000002748646167
73 0.000029535825493
74 0.0
75 0.0
76 0.000037280386382
77 -0.000130693731694
78 -0.000113078495035
79 0.000009147469478
80 0.000043966423806
81 0.0
82 0.000005086085303
83 -0.000012633950984
84 0.0
85 -0.000024527564582
86 0.000033612460923
87 0.0
88 0.000017215950286
89 -0.000076229206388
90 -0.000004850034848
91 0.000007858951310
92 -0.000003008916462
93 0.0
94 0.0
95 -0.000009047587724
96 0.000130693731694
97 0.000113078495035
98 -0.000009147469478
99 -0.000043966423806
100 0.0
101 0.000005086085303
102 -0.000012633950984
103 0.0
104 -0.000024527564582
105 0.000033612460923
106 0.0
107 0.000017215950286
108 -0.000076229206388
109 0.000004850034848
110 -0.000007858951310
111 0.000003008916462
112 0.0
113 0.0
114 0.000009047587724
115 0.000002419532621
116 -0.000022254367750
117 -0.000000259416684
118 0.0
119 0.000011623859958
120 -0.000002828134417
121 -0.000002419532621
122 0.000022254367750
123 0.000000259416684
124 0.0
125 0.000011623859958
126 -0.000002828134417
127 0.000134473822362
128 0.000072180479928
129 0.000154049199273
130 0.0
131 -0.000041083649517
132 -0.000043430092894
133 -0.000134473822362
134 -0.000072180479928
135 -0.000154049199273
136 0.0
137 -0.000041083649517
138 -0.000043430092894
 Sym=      2.3
 Ene=     -20.5635
 Spin= Alpha
 Occup=    2.000000
1 0.000002075245095
2 -0.000042333805260
3 0.000168685000727
4 0.000362245930009
5 0.0
6 0.000050537302436
7 -0.000055669236669
8 0.0
9 0.000130440936061
10 -0.000138016149628
11 0.0
12 0.000324068210617
13 -0.000101709316450
14 -0.000035926870518
15 0.000016884541023
16 0.000019042329496
17 0.0
18 0.0
19 -0.000094003113344
20 -0.000002075245095
21 0.000042333805260
22 -0.000168685000727
23 -0.000362245930009
24 0.0
25 0.000050537302436
26 -0.000055669236669
27 0.0
28 0.000130440936061
29 -0.000138016149628
30 0.0
31 0.000324068210617
32 -0.000101709316450
33 0.000035926870518
34 -0.000016884541023
35 -0.000019042329496
36 0.0
37 0.0
38 0.000094003113344
39 0.000132237534061
40 0.000116080360758
41 -0.000009984618782
42 -0.000047512364259
43 0.0
44 0.000002950470352
45 0.000012390088218
46 0.0
47 -0.000019012129872
48 -0.000028082881884
49 0.0
50 -0.000051614122372
51 0.000099652666342
52 0.000006490227544
53 -0.000010966545036
54 0.000004476317492
55 0.0
56 0.0
57 -0.000000273300491
58 -0.000132237534061
59 -0.000116080360758
60 0.000009984618782
61 0.000047512364259
62 0.0
63 0.000002950470352
64 0.000012390088218
65 0.0
66 -0.000019012129872
67 -0.000028082881884
68 0.0
69 -0.000051614122372
70 0.000099652666342
71 -0.000006490227544
72 0.000010966545036
73 -0.000004476317492
74 0.0
75 0.0
76 0.000000273300491
77 0.38992277755083
78 0.33352292820384
79 0.003972860601612
80 -0.000677124440270
81 0.0
82 -0.000631725115023
83 0.000974928866970
84 0.0
85 0.000223617975708
86 -0.000312732417312
87 0.0
88 -0.000056777918575
89 -0.000030539100327
90 -0.000099533478600
91 0.000054774703025
92 0.000044758775575
93 0.0
94 0.0
95 0.000019677264800
96 -0.38992277755083
97 -0.33352292820384
98 -0.003972860601612
99 0.000677124440270
100 0.0
101 -0.000631725115023
102 0.000974928866970
103 0.0
104 0.000223617975708
105 -0.000312732417312
106 0.0
107 -0.000056777918575
108 -0.000030539100327
109 0.000099533478600
110 -0.000054774703025
111 -0.000044758775575
112 0.0
113 0.0
114 -0.000019677264800
115 -0.000010968384464
116 0.000057794308807
117 0.000068249800938
118 0.0
119 0.000004615430993
120 0.000013448745510
121 0.000010968384464
122 -0.000057794308807
123 -0.000068249800938
124 0.0
125 0.000004615430993
126 0.000013448745510
127 0.000016085757134
128 -0.000006530068489
129 -0.000153022151357
130 0.0
131 -0.000062721115728
132 0.000009778498112
133 -0.000016085757134
134 0.000006530068489
135 0.000153022151357
136 0.0
137 -0.000062721115728
138 0.000009778498112
 Sym=      2.1
 Ene=     -20.5635
 Spin= Alpha
 Occup=    2.000000
1 0.000002781789389
2 -0.000046200453364
3 0.000194624227971
4 0.000223369420749
5 0.0
6 0.000041842622011
7 -0.000057430553522
8 0.0
9 0.000174128964811
10 -0.000134050562100
11 0.0
12 0.000261444195377
13 -0.000192806349346
14 -0.000022690133089
15 0.000005459429738
16 0.000017230703351
17 0.0
18 0.0
19 -0.000086359747112
20 0.000002781789389
21 -0.000046200453364
22 0.000194624227971
23 0.000223369420749
24 0.0
25 -0.000041842622011
26 0.000057430553522
27 0.0
28 -0.000174128964811
29 0.000134050562100
30 0.0
31 -0.000261444195377
32 0.000192806349346
33 -0.000022690133089
34 0.000005459429738
35 0.000017230703351
36 0.0
37 0.0
38 -0.000086359747112
39 0.000196333855954
40 0.000164144354801
41 0.000042428084593
42 -0.000156495894935
43 0.0
44 -0.000009517253219
45 0.000002623240155
46 0.0
47 0.000026373223710
48 0.000007160785288
49 0.0
50 -0.000200055515048
51 0.000005008364585
52 0.000004691413976
53 -0.000006555154003
54 0.000001863740027
55 0.0
56 0.0
57 0.000005297874546
58 0.000196333855954
59 0.000164144354801
60 0.000042428084593
61 -0.000156495894935
62 0.0
63 0.000009517253219
64 -0.000002623240155
65 0.0
66 -0.000026373223710
67 -0.000007160785288
68 0.0
69 0.000200055515048
70 -0.000005008364585
71 0.000004691413976
72 -0.000006555154003
73 0.000001863740027
74 0.0
75 0.0
76 0.000005297874546
77 0.38992286398531
78 0.33352120368310
79 0.003988435408223
80 -0.000693922232181
81 0.0
82 -0.000633051026803
83 0.000972515160718
84 0.0
85 0.000224348282336
86 -0.000303643610493
87 0.0
88 -0.000060599171367
89 -0.000048393892350
90 -0.000095357039341
91 0.000051146828444
92 0.000044210210897
93 0.0
94 0.0
95 0.000018685987149
96 0.38992286398531
97 0.33352120368310
98 0.003988435408223
99 -0.000693922232181
100 0.0
101 0.000633051026803
102 -0.000972515160718
103 0.0
104 -0.000224348282336
105 0.000303643610493
106 0.0
107 0.000060599171367
108 0.000048393892350
109 -0.000095357039341
110 0.000051146828444
111 0.000044210210897
112 0.0
113 0.0
114 0.000018685987149
115 -0.000004482904072
116 0.000071629596199
117 0.000036682386986
118 0.0
119 0.000014447576789
120 0.000019637032273
121 -0.000004482904072
122 0.000071629596199
123 0.000036682386986
124 0.0
125 -0.000014447576789
126 -0.000019637032273
127 -0.000019226728197
128 0.000178032237384
129 0.000078411654448
130 0.0
131 0.000016390514353
132 0.000008038738862
133 -0.000019226728197
134 0.000178032237384
135 0.000078411654448
136 0.0
137 -0.000016390514353
138 -0.000008038738862
 Sym=      3.3
 Ene=     -11.3962
 Spin= Alpha
 Occup=    2.000000
1 0.39842392013369
2 0.32995550134468
3 0.002659294680531
4 0.000138363801672
5 0.0
6 0.000428996233921
7 0.000474752513712
8 0.0
9 -0.000096738695104
10 -0.000492940874480
11 0.0
12 0.000296819505430
13 -0.000016354452117
14 -0.000354828380384
15 0.000213058144234
16 0.000141770236149
17 0.0
18 0.0
19 -0.000229998847760
20 -0.39842392013369
21 -0.32995550134468
22 -0.002659294680531
23 -0.000138363801672
24 0.0
25 0.000428996233921
26 0.000474752513712
27 0.0
28 -0.000096738695104
29 -0.000492940874480
30 0.0
31 0.000296819505430
32 -0.000016354452117
33 0.000354828380384
34 -0.000213058144234
35 -0.000141770236149
36 0.0
37 0.0
38 0.000229998847760
39 -0.000083418700082
40 -0.000146195614829
41 0.000387463012219
42 -0.000082031547644
43 0.0