
 Working directory              : /tmp/lme/molpro.F5rcrUIam2/
 Global scratch directory       : /tmp/lme/molpro.F5rcrUIam2/
 Wavefunction directory         : /home/lme/wfu/
 Main file repository           : /tmp/lme/molpro.F5rcrUIam2/

 id        : liedlgroup

 Nodes     nprocs
 sv1-c724     1
 GA implementation: MPI file
 GA implementation (serial work in mppx): MPI file

 Using customized tuning parameters: mindgm=1; mindgv=20; mindgc=4; mindgr=1; noblas=0; minvec=7
 default implementation of scratch files=df  


 Variables initialized (1042), CPU time= 0.00 sec
 
                    orient,mass
                    geometry=initial.xyz
 Including file /home/lme/Theoretische_Chemie/Nomodeco/ase_databank_integration/formic_acid_dimer/Formic_acid_dimer.molpro/run/Formic_acid_dimer_1.molpro/initial.xyz
                    mass, iso
                    basis=6-311g(d,p)
                    {hf
                    start, atden}
                    optg;
                    {frequencies, symm=auto, print=0, analytical}
                    put, molden, Formic_acid_dimer.molden
 Commands initialized (847), CPU time= 0.01 sec, 718 directives.
 Default parameters read. Elapsed time= 0.06 sec

 Checking input...
 Passed
1


                                         ***  PROGRAM SYSTEM MOLPRO  ***
                                       Copyright, TTI GmbH Stuttgart, 2015
                                    Version 2024.1 linked Wed Jan 31 11:42:09 2024


 **********************************************************************************************************************************
 LABEL *                                                                                                                                                                 
  (6 PROC) 64 bit serial version                                                         DATE: 30-Sep-24          TIME: 13:03:16  
 **********************************************************************************************************************************

 SHA1:             675817fde4514a4a933b69e420913a90cee4ef91
 **********************************************************************************************************************************

 Memory per process:        32 MW
 Total memory per node:     32 MW

 GA preallocation disabled
 GA check disabled

 Variable memory set to 32.0 MW

 ZCENTRE=MASS


 Geometry recognized as XYZ



 Using masses of most abundant isotopes

 **********************************************************************************************************************************
 SETTING BASIS          =    6-311G(D,P)


 Recomputing integrals since basis changed


 Using spherical harmonics

 Library entry C      S 6-311G               selected for orbital group  1
 Library entry C      P 6-311G               selected for orbital group  1
 Library entry C      D 6-311G*              selected for orbital group  1
 Library entry O      S 6-311G               selected for orbital group  2
 Library entry O      P 6-311G               selected for orbital group  2
 Library entry O      D 6-311G*              selected for orbital group  2
 Library entry H      S 6-311G               selected for orbital group  3
 Library entry H      P 6-311G**             selected for orbital group  3


 PROGRAM * SEWARD (Integral evaluation for generally contracted gaussian basis sets)     Author: Roland Lindh, 1990

 Geometry written to block  1 of record 700

 Orientation using atomic masses  
 Molecule type: Asymmetric top,     Order of principal axis = 2
 Symmetry elements: X,YZ
 Rotational constants:       1.6680411      6.0316413      2.3056708 GHz

 Point group  C2h 



 ATOMIC COORDINATES

 NR  ATOM    CHARGE       X              Y              Z

   1  C       6.00    0.000000000   -3.571853071   -0.313807347
   2  C       6.00    0.000000000    3.571853071    0.313807347
   3  O       8.00    0.000000000   -2.807178523    2.049284154
   4  O       8.00    0.000000000    2.807178523   -2.049284154
   5  O       8.00    0.000000000   -2.227648873   -2.188520964
   6  O       8.00    0.000000000    2.227648873    2.188520964
   7  H       1.00    0.000000000   -5.633798552   -0.448481999
   8  H       1.00    0.000000000    5.633798552    0.448481999
   9  H       1.00    0.000000000   -0.927538147    2.099041761
  10  H       1.00    0.000000000    0.927538147   -2.099041761

 Bond lengths in Bohr (Angstrom)

 1-3  2.483732797  1-5  2.306823806  1-7  2.066338894  2-4  2.483732797  2-6  2.306823806
     ( 1.314334794)     ( 1.220718588)     ( 1.093459453)     ( 1.314334794)     ( 1.220718588)

  2- 8  2.066338894   3- 9  1.880298849   4-10  1.880298849
       ( 1.093459453)       ( 0.995011300)       ( 0.995011300)

 Bond angles

  1- 3- 9  109.44747372   2- 4-10  109.44747372   3- 1- 5  126.42767864   3- 1- 7  111.66803047

  4-2-6  126.42767864   4-2-8  111.66803047   5-1-7  121.90429089   6-2-8  121.90429089

 NUCLEAR CHARGE:                   48
 NUMBER OF PRIMITIVE AOS:         224
 NUMBER OF SYMMETRY AOS:          218
 NUMBER OF CONTRACTIONS:          132   (   49Ag  +   17Au  +   49Bu  +   17Bg  )
 NUMBER OF INNER CORE ORBITALS:     0   (    0Ag  +    0Au  +    0Bu  +    0Bg  )
 NUMBER OF OUTER CORE ORBITALS:     6   (    3Ag  +    0Au  +    3Bu  +    0Bg  )
 NUMBER OF VALENCE ORBITALS:       28   (   11Ag  +    3Au  +   11Bu  +    3Bg  )


 NUCLEAR REPULSION ENERGY  235.94662135


 Eigenvalues of metric

         1 0.750E-02 0.140E-01 0.175E-01 0.298E-01 0.316E-01 0.551E-01 0.596E-01 0.857E-01
         2 0.122E+00 0.198E+00 0.214E+00 0.361E+00 0.437E+00 0.501E+00 0.654E+00 0.844E+00
         3 0.936E-02 0.138E-01 0.177E-01 0.199E-01 0.318E-01 0.483E-01 0.619E-01 0.826E-01
         4 0.120E+00 0.206E+00 0.207E+00 0.368E+00 0.421E+00 0.501E+00 0.639E+00 0.894E+00


 Contracted 2-electron integrals neglected if value below      1.0D-11
 AO integral compression algorithm  1   Integral accuracy      1.0D-11

     52.429 MB (compressed) written to integral file ( 50.0%)


 NUMBER OF SORTED TWO-ELECTRON INTEGRALS:   10428281.     BUFFER LENGTH:  32768
 NUMBER OF SEGMENTS:   1  SEGMENT LENGTH:   10428281      RECORD LENGTH: 524288

 Memory used in sort:      10.99 MW

 SORT1 READ    13156080. AND WROTE    10027366. INTEGRALS IN     29 RECORDS. CPU TIME:     0.18 SEC, REAL TIME:     0.26 SEC
 SORT2 READ    10027366. AND WROTE    10428281. INTEGRALS IN    200 RECORDS. CPU TIME:     0.26 SEC, REAL TIME:     0.30 SEC

 FILE SIZES:   FILE 1:    83.0 MBYTE,  FILE 4:   121.7 MBYTE,   TOTAL:    204.7 MBYTE

 OPERATOR DM      FOR CENTER  0  COORDINATES:    0.000000    0.000000    0.000000


 **********************************************************************************************************************************
 DATASETS  * FILE   NREC   LENGTH (MB)   RECORD NAMES
              1      19       69.92       500      610      700      900      950      970     1000      129      960     1100   
                                          VAR    BASINP    GEOM    SYMINP    ZMAT    AOBASIS   BASIS     P2S    ABASIS      S 
                                         1400     1410     1200     1210     1080     1600     1650     1300     1700   
                                           T        V       H0       H01     AOSYM     SMH    MOLCAS    ERIS     OPER   

 PROGRAMS   *        TOTAL       INT
 CPU TIMES  *         1.76      1.66
 REAL TIME  *         1.97 SEC
 DISK USED  *       195.74 MB
 **********************************************************************************************************************************


 Program * Restricted Hartree-Fock

 Orbital guess generated from atomic densities.

 Initial occupancy:  10   2  10   2

 NELEC=   48   SYM=1   MS2= 0   THRE=1.0D-08   THRD=1.0D-06   THRG=1.0D-06  HFMA2=F  DIIS_START=2   DIIS_MAX=10   DIIS_INCORE=F

 Level shifts:    0.00 (CLOSED)    0.00 (OPEN)    0.30 (GAP_MIN)

 ITER           ETOT              DE          GRAD        DDIFF     DIIS  NEXP   TIME(IT)  TIME(TOT)  DIAG
   1     -377.51833005    -377.51833005     0.00D+00     0.80D-01     0     0       0.02      0.08    start
   2     -377.60632647      -0.08799641     0.14D-01     0.11D-01     1     0       0.03      0.11    diag
   3     -377.65495364      -0.04862717     0.93D-02     0.45D-02     2     0       0.03      0.14    diag
   4     -377.65646712      -0.00151348     0.13D-02     0.94D-03     3     0       0.03      0.17    diag
   5     -377.65673933      -0.00027221     0.54D-03     0.41D-03     4     0       0.04      0.21    diag
   6     -377.65678812      -0.00004879     0.16D-03     0.16D-03     5     0       0.03      0.24    diag
   7     -377.65679945      -0.00001133     0.68D-04     0.95D-04     6     0       0.04      0.28    diag
   8     -377.65680054      -0.00000110     0.21D-04     0.31D-04     7     0       0.04      0.32    fixocc
   9     -377.65680066      -0.00000011     0.71D-05     0.10D-04     8     0       0.03      0.35    diag
  10     -377.65680067      -0.00000001     0.20D-05     0.32D-05     9     0       0.03      0.38    diag/orth
  11     -377.65680067      -0.00000000     0.50D-06     0.67D-06     9     0       0.03      0.41    diag
  12     -377.65680067      -0.00000000     0.86D-07     0.78D-07     0     0       0.03      0.44    diag

 Final occupancy:  10   2  10   2

 !RHF STATE 1.1 Energy               -377.656800668496
  RHF One-electron energy            -987.071609549948
  RHF Two-electron energy             373.468187535075
  RHF Kinetic energy                  377.299783280741
  RHF Nuclear energy                  235.946621346377
  RHF Virial quotient                  -1.000946243289

 !RHF STATE 1.1 Dipole moment           0.00000000     0.00000000     0.00000000
 Dipole moment /Debye                   0.00000000     0.00000000     0.00000000

 Orbital energies:

           1.1          2.1          3.1          4.1          5.1          6.1          7.1          8.1          9.1         10.1
    -20.610869   -20.572009   -11.408926    -1.486248    -1.373033    -0.919004    -0.732931    -0.693936    -0.619684    -0.495600

          11.1         12.1
      0.170959     0.243831

           1.2          2.2          3.2          4.2
     -0.643797    -0.493349     0.153615     0.533584

           1.3          2.3          3.3          4.3          5.3          6.3          7.3          8.3          9.3         10.3
    -20.610869   -20.572010   -11.408926    -1.473103    -1.387424    -0.882454    -0.768959    -0.723818    -0.578773    -0.473337

          11.3         12.3
      0.173612     0.279067

           1.4          2.4          3.4          4.4
     -0.633875    -0.504686     0.159721     0.565498


 HOMO     10.3    -0.473337 =     -12.8802eV
 LUMO      3.2     0.153615 =       4.1801eV
 LUMO-HOMO         0.626952 =      17.0602eV

 Orbitals saved in record  2100.2


 **********************************************************************************************************************************
 DATASETS  * FILE   NREC   LENGTH (MB)   RECORD NAMES
              1      19       69.92       500      610      700      900      950      970     1000      129      960     1100   
                                          VAR    BASINP    GEOM    SYMINP    ZMAT    AOBASIS   BASIS     P2S    ABASIS      S 
                                         1400     1410     1200     1210     1080     1600     1650     1300     1700   
                                           T        V       H0       H01     AOSYM     SMH    MOLCAS    ERIS     OPER   

              2       4        0.63       700     1000      520     2100   
                                         GEOM     BASIS   MCVARS     RHF  

 PROGRAMS   *        TOTAL    HF-SCF       INT
 CPU TIMES  *         2.21      0.45      1.66
 REAL TIME  *         2.48 SEC
 DISK USED  *       195.74 MB
 **********************************************************************************************************************************


 PROGRAM * OPT (Geometry optimization)     Authors: F. Eckert and H.-J. Werner


 BFGS update of hessian

 *** Long output written to logfile /home/lme/Theoretische_Chemie/Nomodeco/ase_databank_integration/formic_acid_dimer/Formic_acid_dimer.molpro/run/Formic_acid_dimer_1.molpro/Formic_acid_dimer_1.log ***


 Geometry optimization using default procedure for command HF-SCF

 Geometry written to block  1 of record 700

 PQS Optimization using delocalized internal coordinates

 Point group c2h. Number of degrees of freedom:    9

 ITER.   ENERGY(OLD)    ENERGY(NEW)      DE          GRADMAX     GRADNORM    GRADRMS     STEPMAX     STEPLEN     STEPRMS   CPU-time
   1  -377.65680067  -377.66206191    -0.00526124  0.06184540  0.08474103  0.02824701  0.09808524  0.13969185  0.04656395      5.00
   2  -377.66206191  -377.66273496    -0.00067305  0.00791368  0.01195915  0.00398638  0.06855819  0.08884029  0.02961343      9.97
   3  -377.66273496  -377.66376381    -0.00102885  0.00604371  0.00886817  0.00295606  0.19279844  0.25268738  0.08422913     14.89
   4  -377.66376381  -377.66399036    -0.00022655  0.00368950  0.00687804  0.00229268  0.08125490  0.11970081  0.03990027     19.74
   5  -377.66399036  -377.66404928    -0.00005891  0.00179157  0.00309446  0.00103149  0.03798845  0.05991712  0.01997237     24.53
   6  -377.66404928  -377.66407179    -0.00002251  0.00091622  0.00157111  0.00052370  0.01422316  0.02565908  0.00855303     29.41
   7  -377.66407179  -377.66409472    -0.00002293  0.00071481  0.00130644  0.00043548  0.01877041  0.03094072  0.01031357     34.32
   8  -377.66409472  -377.66410838    -0.00001366  0.00084071  0.00127409  0.00042470  0.01759723  0.02995059  0.00998353     39.30
   9  -377.66410838  -377.66411201    -0.00000363  0.00058875  0.00087192  0.00029064  0.00881128  0.01465588  0.00488529     44.24
  10  -377.66411201  -377.66411239    -0.00000038  0.00019631  0.00030394  0.00010131  0.00217819  0.00314490  0.00104830     49.10

 END OF GEOMETRY OPTIMIZATION.

 Geometry written to block  1 of record 700

 Recomputing wavefunction for reoriented structure

 Current geometry (xyz format, in Angstrom)

   10
 HF-SCF000/6-311G(D,P)  ENERGY=-377.66411239
 C          0.0000000000       -1.9392979331       -0.2268940806
 O          0.0000000000       -1.6278130118        1.0331715731
 O          0.0000000000       -1.1712248904       -1.1356607265
 H          0.0000000000       -3.0145967853       -0.3717225591
 H          0.0000000000       -0.6755491363        1.1518185589
 C          0.0000000000        1.9392979331        0.2268940806
 O          0.0000000000        1.6278130118       -1.0331715731
 O          0.0000000000        1.1712248904        1.1356607265
 H          0.0000000000        3.0145967853        0.3717225591
 H          0.0000000000        0.6755491363       -1.1518185589

 **********************************************************************************************************************************


 **********************************************************************************************************************************
 DATASETS  * FILE   NREC   LENGTH (MB)   RECORD NAMES
              1      19       70.11       500      610      700      900      950      970     1000      129      960     1100   
                                          VAR    BASINP    GEOM    SYMINP    ZMAT    AOBASIS   BASIS     P2S    ABASIS      S 
                                         1400     1410     1200     1210     1080     1600     1650     1300     1700   
                                           T        V       H0       H01     AOSYM     SMH    MOLCAS    ERIS     OPER   

              2       4        0.63       700     1000      520     2100   
                                         GEOM     BASIS   MCVARS     RHF  

 PROGRAMS   *        TOTAL      OPTG    HF-SCF       INT
 CPU TIMES  *        53.22     51.00      0.45      1.66
 REAL TIME  *        56.10 SEC
 DISK USED  *       196.78 MB
 **********************************************************************************************************************************


 PROGRAM * HESSIAN

 PROGRAM * MCKINLEY (Hessian of the energy)     Author: A. Bernhardsson, R. Lindh

 Orbitals from record         2100.2

 Number of closed-shell orbitals: 24 ( 10  2 10  2 )
 Number of occupied orbitals:     24 ( 10  2 10  2 )

 Number of electrons= 48     Singlet     Space symmetry=1      Wavefunction type: CLOSED          


 McKinley needed     52.26 seconds of CPU time

 Entering CPHF calculation

 CPHF needed 254 iterations for 30 perturbations.  Total CPU time:   11.52 sec


 HF-SCF hessian saved to record  5300.2

 PROGRAM * FREQUENCIES (Calculation of harmonic vibrational spectra for HF-SCF)


 Permanent Dipole Moment [debye]
     1-   3    0.000000    0.000000    0.000000

 Dipole Moment Norm    0.0000000 [debye]

 Dipole Moment Derivatives [debye/ang]
              1             2             3             4             5             6             7             8
    1    0.00000000    0.00000000    0.00000000    0.00000000    0.00000000    0.00000000    0.00000000    0.00000000
    2    0.00000000    0.00000000    0.00000000    0.00000000    0.00000000    0.00000000    0.00000000    0.00000000
    3    0.00000000    0.00000000    0.00000000    0.00000000    0.00000000    0.00000000    0.00000000    0.00000000
              9            10            11            12            13            14            15            16
    1    0.00000000    0.00000000    0.00000000    0.00000000    0.00000000    0.00000000    0.00000000    0.00000000
    2    0.00000000    0.00000000    0.00000000    0.00000000    0.00000000    0.00000000    0.00000000    0.00000000
    3    0.00000000    0.00000000    0.00000000    0.00000000    0.00000000    0.00000000    0.00000000    0.00000000
             17            18            19            20            21            22            23            24
    1    0.00000000    0.00000000    0.00000000    0.00000000    0.00000000    0.00000000    0.00000000    0.00000000
    2    0.00000000    0.00000000    0.00000000    0.00000000    0.00000000    0.00000000    0.00000000    0.00000000
    3    0.00000000    0.00000000    0.00000000    0.00000000    0.00000000    0.00000000    0.00000000    0.00000000
             25            26            27            28            29            30
    1    0.00000000    0.00000000    0.00000000    0.00000000    0.00000000    0.00000000
    2    0.00000000    0.00000000    0.00000000    0.00000000    0.00000000    0.00000000
    3    0.00000000    0.00000000    0.00000000    0.00000000    0.00000000    0.00000000

 Projecting out rotations and translations

 Force Constants (Second Derivatives of the Energy) in [a.u.]
                             CX1         CY1         CZ1         OX2         OY2     
           CX1           0.2551166
           CY1           0.0000000   1.0393298
           CZ1           0.0000000  -0.1919286   0.9893536
           OX2          -0.0813322   0.0000000   0.0000000   0.0549936
           OY2           0.0000000  -0.2035219  -0.0935529   0.0000000   0.7003308
           OZ2           0.0000000  -0.0786530  -0.3921985   0.0000000   0.1149540
           OX3          -0.0939491   0.0000000   0.0000000   0.0360523   0.0000000
           OY3           0.0000000  -0.4891409   0.3406332   0.0000000   0.0515721
           OZ3           0.0000000   0.3685083  -0.5174799   0.0000000   0.0372130
           HX4          -0.0847487   0.0000000   0.0000000   0.0163764   0.0000000
           HY4           0.0000000  -0.3325192  -0.0478356   0.0000000  -0.0116540
           HZ4           0.0000000  -0.0380604  -0.0695472   0.0000000  -0.0484023
           HX5           0.0048896   0.0000000   0.0000000  -0.0295047   0.0000000
           HY5           0.0000000  -0.0057455  -0.0346563   0.0000000  -0.5136477
           HZ5           0.0000000  -0.0660462  -0.0083894   0.0000000  -0.0103881
           CX6           0.0010081   0.0000000   0.0000000  -0.0007694   0.0000000
           CY6           0.0000000  -0.0060018  -0.0033058   0.0000000   0.0033606
           CZ6           0.0000000  -0.0033058   0.0347039   0.0000000  -0.0185095
           OX7          -0.0007694   0.0000000   0.0000000   0.0007931   0.0000000
           OY7           0.0000000   0.0033606  -0.0185095   0.0000000   0.0038958
           OZ7           0.0000000   0.0009625  -0.0192411   0.0000000   0.0085192
           OX8          -0.0014827   0.0000000   0.0000000   0.0049649   0.0000000
           OY8           0.0000000   0.0011488   0.0222280   0.0000000  -0.0247857
           OZ8           0.0000000   0.0044414  -0.0181940   0.0000000   0.0101956
           HX9           0.0001350   0.0000000   0.0000000  -0.0004689   0.0000000
           HY9           0.0000000   0.0004687   0.0004488   0.0000000  -0.0010758
           HZ9           0.0000000   0.0001863  -0.0022784   0.0000000   0.0015706
           HX10          0.0011328   0.0000000   0.0000000  -0.0011051   0.0000000
           HY10          0.0000000  -0.0073786   0.0264787   0.0000000  -0.0044742
           HZ10          0.0000000   0.0038954   0.0032710   0.0000000  -0.0015997
                             OZ2         OX3         OY3         OZ3         HX4     
           OZ2           0.5944005
           OX3           0.0000000   0.0406452
           OY3           0.0381355   0.0000000   0.4826613
           OZ3          -0.1211432   0.0000000  -0.4232350   0.6340196
           HX4           0.0000000   0.0271108   0.0000000   0.0000000   0.0335265
           HY4          -0.0071108   0.0000000  -0.0295071   0.0144515   0.0000000
           HZ4          -0.0160746   0.0000000   0.0447236   0.0017156   0.0000000
           HX5           0.0000000  -0.0070427   0.0000000   0.0000000   0.0072287
           HY5          -0.0522286   0.0000000  -0.0100433   0.0161265   0.0000000
           HZ5          -0.0695348   0.0000000   0.0062853   0.0067222   0.0000000
           CX6           0.0000000  -0.0014827   0.0000000   0.0000000   0.0001350
           CY6           0.0009625   0.0000000   0.0011488   0.0044414   0.0000000
           CZ6          -0.0192411   0.0000000   0.0222280  -0.0181940   0.0000000
           OX7           0.0000000   0.0049649   0.0000000   0.0000000  -0.0004689
           OY7           0.0085192   0.0000000  -0.0247857   0.0101956   0.0000000
           OZ7           0.0106477   0.0000000  -0.0114007   0.0139780   0.0000000
           OX8           0.0000000   0.0019955   0.0000000   0.0000000  -0.0003738
           OY8          -0.0114007   0.0000000   0.0072784  -0.0122435   0.0000000
           OZ8           0.0139780   0.0000000  -0.0122435   0.0069781   0.0000000
           HX9           0.0000000  -0.0003738   0.0000000   0.0000000   0.0000552
           HY9          -0.0003025   0.0000000  -0.0006605  -0.0002620   0.0000000
           HZ9           0.0012035   0.0000000  -0.0019305   0.0012926   0.0000000
           HX10          0.0000000  -0.0079204   0.0000000   0.0000000   0.0011587
           HY10         -0.0128758   0.0000000   0.0114767  -0.0151957   0.0000000
           HZ10         -0.0020375   0.0000000  -0.0031958  -0.0078890   0.0000000
                             HY4         HZ4         HX5         HY5         HZ5     
           HY4           0.3705004
           HZ4           0.0423770   0.0895278
           HX5           0.0000000   0.0000000   0.0301008
           HY5           0.0026803   0.0017453   0.0000000   0.5190429
           HZ5          -0.0015561  -0.0059957   0.0000000   0.0702451   0.0854660
           CX6           0.0000000   0.0000000   0.0011328   0.0000000   0.0000000
           CY6           0.0004687   0.0001863   0.0000000  -0.0073786   0.0038954
           CZ6           0.0004488  -0.0022784   0.0000000   0.0264787   0.0032710
           OX7           0.0000000   0.0000000  -0.0011051   0.0000000   0.0000000
           OY7          -0.0010758   0.0015706   0.0000000  -0.0044742  -0.0015997
           OZ7          -0.0003025   0.0012035   0.0000000  -0.0128758  -0.0020375
           OX8           0.0000000   0.0000000  -0.0079204   0.0000000   0.0000000
           OY8          -0.0006605  -0.0019305   0.0000000   0.0114767  -0.0031958
           OZ8          -0.0002620   0.0012926   0.0000000  -0.0151957  -0.0078890
           HX9           0.0000000   0.0000000   0.0011587   0.0000000   0.0000000
           HY9          -0.0001220  -0.0000516   0.0000000   0.0018892  -0.0001589
           HZ9          -0.0000516   0.0001873   0.0000000  -0.0021582  -0.0000308
           HX10          0.0000000   0.0000000   0.0010622   0.0000000   0.0000000
           HY10          0.0018892  -0.0021582   0.0000000   0.0062004   0.0025190
           HZ10         -0.0001589  -0.0000308   0.0000000   0.0025190  -0.0015820
                             CX6         CY6         CZ6         OX7         OY7     
           CX6           0.2551166
           CY6           0.0000000   1.0393298
           CZ6           0.0000000  -0.1919286   0.9893536
           OX7          -0.0813322   0.0000000   0.0000000   0.0549936
           OY7           0.0000000  -0.2035219  -0.0935529   0.0000000   0.7003308
           OZ7           0.0000000  -0.0786530  -0.3921985   0.0000000   0.1149540
           OX8          -0.0939491   0.0000000   0.0000000   0.0360523   0.0000000
           OY8           0.0000000  -0.4891409   0.3406332   0.0000000   0.0515721
           OZ8           0.0000000   0.3685083  -0.5174799   0.0000000   0.0372130
           HX9          -0.0847487   0.0000000   0.0000000   0.0163764   0.0000000
           HY9           0.0000000  -0.3325192  -0.0478356   0.0000000  -0.0116540
           HZ9           0.0000000  -0.0380604  -0.0695472   0.0000000  -0.0484023
           HX10          0.0048896   0.0000000   0.0000000  -0.0295047   0.0000000
           HY10          0.0000000  -0.0057455  -0.0346563   0.0000000  -0.5136477
           HZ10          0.0000000  -0.0660462  -0.0083894   0.0000000  -0.0103881
                             OZ7         OX8         OY8         OZ8         HX9     
           OZ7           0.5944005
           OX8           0.0000000   0.0406452
           OY8           0.0381355   0.0000000   0.4826613
           OZ8          -0.1211432   0.0000000  -0.4232350   0.6340196
           HX9           0.0000000   0.0271108   0.0000000   0.0000000   0.0335265
           HY9          -0.0071108   0.0000000  -0.0295071   0.0144515   0.0000000
           HZ9          -0.0160746   0.0000000   0.0447236   0.0017156   0.0000000
           HX10          0.0000000  -0.0070427   0.0000000   0.0000000   0.0072287
           HY10         -0.0522286   0.0000000  -0.0100433   0.0161265   0.0000000
           HZ10         -0.0695348   0.0000000   0.0062853   0.0067222   0.0000000
                             HY9         HZ9         HX10        HY10        HZ10    
           HY9           0.3705004
           HZ9           0.0423770   0.0895278
           HX10          0.0000000   0.0000000   0.0301008
           HY10          0.0026803   0.0017453   0.0000000   0.5190429
           HZ10         -0.0015561  -0.0059957   0.0000000   0.0702451   0.0854660


 Atomic Masses
     1-  10   12.000000   15.994910   15.994910    1.007825    1.007825   12.000000   15.994910   15.994910    1.007825    1.007825

 Mass weighted Second Derivative Matrix
                             CX1         CY1         CZ1         OX2         OY2     
           CX1           0.0212597
           CY1           0.0000000   0.0866108
           CZ1           0.0000000  -0.0159941   0.0824461
           OX2          -0.0058706   0.0000000   0.0000000   0.0034382
           OY2           0.0000000  -0.0146903  -0.0067527   0.0000000   0.0437846
           OZ2           0.0000000  -0.0056772  -0.0283090   0.0000000   0.0071869
           OX3          -0.0067813   0.0000000   0.0000000   0.0022540   0.0000000
           OY3           0.0000000  -0.0353063   0.0245870   0.0000000   0.0032243
           OZ3           0.0000000   0.0265990  -0.0373518   0.0000000   0.0023266
           HX4          -0.0243697   0.0000000   0.0000000   0.0040788   0.0000000
           HY4           0.0000000  -0.0956166  -0.0137552   0.0000000  -0.0029026
           HZ4           0.0000000  -0.0109443  -0.0199985   0.0000000  -0.0120554
           HX5           0.0014060   0.0000000   0.0000000  -0.0073487   0.0000000
           HY5           0.0000000  -0.0016521  -0.0099655   0.0000000  -0.1279328
           HZ5           0.0000000  -0.0189917  -0.0024124   0.0000000  -0.0025873
           CX6           0.0000840   0.0000000   0.0000000  -0.0000555   0.0000000
           CY6           0.0000000  -0.0005001  -0.0002755   0.0000000   0.0002426
           CZ6           0.0000000  -0.0002755   0.0028920   0.0000000  -0.0013360
           OX7          -0.0000555   0.0000000   0.0000000   0.0000496   0.0000000
           OY7           0.0000000   0.0002426  -0.0013360   0.0000000   0.0002436
           OZ7           0.0000000   0.0000695  -0.0013888   0.0000000   0.0005326
           OX8          -0.0001070   0.0000000   0.0000000   0.0003104   0.0000000
           OY8           0.0000000   0.0000829   0.0016044   0.0000000  -0.0015496
           OZ8           0.0000000   0.0003206  -0.0013132   0.0000000   0.0006374
           HX9           0.0000388   0.0000000   0.0000000  -0.0001168   0.0000000
           HY9           0.0000000   0.0001348   0.0001291   0.0000000  -0.0002679
           HZ9           0.0000000   0.0000536  -0.0006551   0.0000000   0.0003912
           HX10          0.0003257   0.0000000   0.0000000  -0.0002753   0.0000000
           HY10          0.0000000  -0.0021217   0.0076140   0.0000000  -0.0011144
           HZ10          0.0000000   0.0011201   0.0009406   0.0000000  -0.0003984
                             OZ2         OX3         OY3         OZ3         HX4     
           OZ2           0.0371619
           OX3           0.0000000   0.0025411
           OY3           0.0023842   0.0000000   0.0301759
           OZ3          -0.0075739   0.0000000  -0.0264606   0.0396388
           HX4           0.0000000   0.0067524   0.0000000   0.0000000   0.0332662
           HY4          -0.0017711   0.0000000  -0.0073493   0.0035994   0.0000000
           HZ4          -0.0040037   0.0000000   0.0111392   0.0004273   0.0000000
           HX5           0.0000000  -0.0017541   0.0000000   0.0000000   0.0071726
           HY5          -0.0130084   0.0000000  -0.0025014   0.0040166   0.0000000
           HZ5          -0.0173188   0.0000000   0.0015655   0.0016743   0.0000000
           CX6           0.0000000  -0.0001070   0.0000000   0.0000000   0.0000388
           CY6           0.0000695   0.0000000   0.0000829   0.0003206   0.0000000
           CZ6          -0.0013888   0.0000000   0.0016044  -0.0013132   0.0000000
           OX7           0.0000000   0.0003104   0.0000000   0.0000000  -0.0001168
           OY7           0.0005326   0.0000000  -0.0015496   0.0006374   0.0000000
           OZ7           0.0006657   0.0000000  -0.0007128   0.0008739   0.0000000
           OX8           0.0000000   0.0001248   0.0000000   0.0000000  -0.0000931
           OY8          -0.0007128   0.0000000   0.0004550  -0.0007655   0.0000000
           OZ8           0.0008739   0.0000000  -0.0007655   0.0004363   0.0000000
           HX9           0.0000000  -0.0000931   0.0000000   0.0000000   0.0000548
           HY9          -0.0000753   0.0000000  -0.0001645  -0.0000653   0.0000000
           HZ9           0.0002998   0.0000000  -0.0004808   0.0003220   0.0000000
           HX10          0.0000000  -0.0019727   0.0000000   0.0000000   0.0011497
           HY10         -0.0032069   0.0000000   0.0028585  -0.0037848   0.0000000
           HZ10         -0.0005075   0.0000000  -0.0007960  -0.0019649   0.0000000
                             HY4         HZ4         HX5         HY5         HZ5     
           HY4           0.3676237
           HZ4           0.0420480   0.0888326
           HX5           0.0000000   0.0000000   0.0298671
           HY5           0.0026595   0.0017318   0.0000000   0.5150129
           HZ5          -0.0015440  -0.0059492   0.0000000   0.0696997   0.0848025
           CX6           0.0000000   0.0000000   0.0003257   0.0000000   0.0000000
           CY6           0.0001348   0.0000536   0.0000000  -0.0021217   0.0011201
           CZ6           0.0001291  -0.0006551   0.0000000   0.0076140   0.0009406
           OX7           0.0000000   0.0000000  -0.0002753   0.0000000   0.0000000
           OY7          -0.0002679   0.0003912   0.0000000  -0.0011144  -0.0003984
           OZ7          -0.0000753   0.0002998   0.0000000  -0.0032069  -0.0005075
           OX8           0.0000000   0.0000000  -0.0019727   0.0000000   0.0000000
           OY8          -0.0001645  -0.0004808   0.0000000   0.0028585  -0.0007960
           OZ8          -0.0000653   0.0003220   0.0000000  -0.0037848  -0.0019649
           HX9           0.0000000   0.0000000   0.0011497   0.0000000   0.0000000
           HY9          -0.0001211  -0.0000512   0.0000000   0.0018745  -0.0001576
           HZ9          -0.0000512   0.0001858   0.0000000  -0.0021414  -0.0000306
           HX10          0.0000000   0.0000000   0.0010540   0.0000000   0.0000000
           HY10          0.0018745  -0.0021414   0.0000000   0.0061522   0.0024994
           HZ10         -0.0001576  -0.0000306   0.0000000   0.0024994  -0.0015697
                             CX6         CY6         CZ6         OX7         OY7     
           CX6           0.0212597
           CY6           0.0000000   0.0866108
           CZ6           0.0000000  -0.0159941   0.0824461
           OX7          -0.0058706   0.0000000   0.0000000   0.0034382
           OY7           0.0000000  -0.0146903  -0.0067527   0.0000000   0.0437846
           OZ7           0.0000000  -0.0056772  -0.0283090   0.0000000   0.0071869
           OX8          -0.0067813   0.0000000   0.0000000   0.0022540   0.0000000
           OY8           0.0000000  -0.0353063   0.0245870   0.0000000   0.0032243
           OZ8           0.0000000   0.0265990  -0.0373518   0.0000000   0.0023266
           HX9          -0.0243697   0.0000000   0.0000000   0.0040788   0.0000000
           HY9           0.0000000  -0.0956166  -0.0137552   0.0000000  -0.0029026
           HZ9           0.0000000  -0.0109443  -0.0199985   0.0000000  -0.0120554
           HX10          0.0014060   0.0000000   0.0000000  -0.0073487   0.0000000
           HY10          0.0000000  -0.0016521  -0.0099655   0.0000000  -0.1279328
           HZ10          0.0000000  -0.0189917  -0.0024124   0.0000000  -0.0025873
                             OZ7         OX8         OY8         OZ8         HX9     
           OZ7           0.0371619
           OX8           0.0000000   0.0025411
           OY8           0.0023842   0.0000000   0.0301759
           OZ8          -0.0075739   0.0000000  -0.0264606   0.0396388
           HX9           0.0000000   0.0067524   0.0000000   0.0000000   0.0332662
           HY9          -0.0017711   0.0000000  -0.0073493   0.0035994   0.0000000
           HZ9          -0.0040037   0.0000000   0.0111392   0.0004273   0.0000000
           HX10          0.0000000  -0.0017541   0.0000000   0.0000000   0.0071726
           HY10         -0.0130084   0.0000000  -0.0025014   0.0040166   0.0000000
           HZ10         -0.0173188   0.0000000   0.0015655   0.0016743   0.0000000
                             HY9         HZ9         HX10        HY10        HZ10    
           HY9           0.3676237
           HZ9           0.0420480   0.0888326
           HX10          0.0000000   0.0000000   0.0298671
           HY10          0.0026595   0.0017318   0.0000000   0.5150129
           HZ10         -0.0015440  -0.0059492   0.0000000   0.0696997   0.0848025


 Mass Weighted 2nd Derivative Matrix Eigenvalues
     1-  10    0.000000    0.000000    0.000000    0.000000    0.000000    0.000000    0.000214    0.001019    0.001059    0.001208
    11-  20    0.001822    0.002249    0.020543    0.021312    0.031329    0.034771    0.055427    0.055695    0.068624    0.068994
    21-  30    0.085016    0.087378    0.091289    0.092487    0.140485    0.148198    0.403101    0.403792    0.551715    0.565199

 Mass Weighted 2nd Derivative Matrix Eigenvectors
              1             2             3             4             5             6             7             8
    1    0.00000000    0.00000000    0.00000000    0.57244012    0.00000000    0.00000000   -0.03353288    0.00000000
    2    0.11960848   -0.25513352    0.11428765    0.00000000   -0.08811901    0.17926965    0.00000000    0.15546239
    3   -0.08327995    0.16099188   -0.06779669    0.00000000    0.29852875    0.38194920    0.00000000   -0.05136375
    4    0.10399729   -0.22629293    0.05969928    0.51256918    0.43841097   -0.21400398   -0.46909751    0.00000000
    5   -0.07815136   -0.29094632    0.13446626    0.00000000    0.01802132    0.34410504    0.00000000    0.55007718
    6   -0.04269381    0.18497555   -0.07889517    0.00000000    0.31505305    0.40706733    0.00000000   -0.16992010
    7   -0.07373240    0.23319891    0.10859550    0.57221443   -0.31963675    0.15473160    0.52291869    0.00000000
    8    0.29404453   -0.29715923    0.13013013    0.00000000   -0.18810375    0.10806713    0.00000000   -0.10430361
    9    0.03566182    0.18366759   -0.07980802    0.00000000    0.27165907    0.35737603    0.00000000   -0.31343025
   10   -0.00333453   -0.01186906   -0.04158306    0.22159895   -0.01174124    0.00607156   -0.06528776    0.00000000
   11    0.04090162   -0.07404244    0.03304815    0.00000000   -0.02899220    0.04799627    0.00000000    0.03498817
   12   -0.07045557    0.04742904   -0.01910800    0.00000000    0.11216719    0.14006538    0.00000000    0.06363718
   13    0.02885966   -0.04581690    0.05178744    0.07949880    0.11960466   -0.05868538   -0.03341599    0.00000000
   14   -0.02472823   -0.07294691    0.03381275    0.00000000    0.00735414    0.08961718    0.00000000    0.14568929
   15    0.03030400    0.04574711   -0.02028186    0.00000000    0.05636573    0.07616602    0.00000000   -0.07822067
   16    0.03661708    0.15943468    0.51698754   -0.11677928    0.12540944   -0.06547075   -0.03353288    0.00000000
   17    0.05215591   -0.25400756    0.11507348    0.00000000   -0.05076324    0.22204649    0.00000000   -0.15546239
   18    0.49324731    0.15136815   -0.07451330    0.00000000   -0.02075668    0.01632912    0.00000000    0.05136375
   19   -0.06172226    0.41036296    0.53717155    0.01349894   -0.29362366    0.13841690   -0.46909751    0.00000000
   20    0.27645624   -0.29686564    0.13033504    0.00000000   -0.17836321    0.11922121    0.00000000   -0.55007718
   21    0.51600803    0.17564937   -0.08540411    0.00000000    0.00563948    0.05275171    0.00000000    0.16992010
   22    0.11600743   -0.04912888    0.48827533   -0.04614631    0.46442406   -0.23031868    0.52291869    0.00000000
   23   -0.09573964   -0.29065273    0.13467116    0.00000000    0.02776185    0.35525911    0.00000000    0.10430361
   24    0.43765240    0.17695733   -0.08449126    0.00000000    0.04903346    0.10244302    0.00000000    0.31343025
   25    0.01394624    0.05807361    0.19140727   -0.08954736    0.04808520   -0.02504514   -0.06528776    0.00000000
   26    0.00887610   -0.07350785    0.03342125    0.00000000   -0.01125621    0.06830610    0.00000000   -0.03498817
   27    0.18926508    0.04309363   -0.02213377    0.00000000   -0.03166819   -0.02464337    0.00000000   -0.06363718
   28   -0.01824794    0.09202145    0.09803678    0.05255280   -0.08326070    0.03971180   -0.03341599    0.00000000
   29    0.07450596   -0.07460338    0.03265666    0.00000000   -0.04760255    0.02668519    0.00000000   -0.14568929
   30    0.08850551    0.04477557   -0.02095991    0.00000000    0.02413327    0.03925599    0.00000000    0.07822067
              9            10            11            12            13            14            15            16
    1    0.41333868    0.00000000    0.00000000    0.33056627    0.00000000    0.00000000    0.12570046    0.15689686
    2    0.00000000    0.33425522   -0.04907708    0.00000000   -0.31337167   -0.31792121    0.00000000    0.00000000
    3    0.00000000    0.06984342    0.14000376    0.00000000   -0.03022196   -0.02806829    0.00000000    0.00000000
    4   -0.25075945    0.00000000    0.00000000   -0.25183056    0.00000000    0.00000000   -0.19247434   -0.19276592
    5    0.00000000    0.15593104    0.45687683    0.00000000    0.18734599    0.17989009    0.00000000    0.00000000
    6    0.00000000    0.11484738    0.02909363    0.00000000   -0.31625458   -0.31578530    0.00000000    0.00000000
    7   -0.15883950    0.00000000    0.00000000   -0.36312731    0.00000000    0.00000000   -0.02952843   -0.11635279
    8    0.00000000    0.53960279   -0.43860869    0.00000000    0.10172529    0.09967720    0.00000000    0.00000000
    9    0.00000000    0.19548875   -0.16802966    0.00000000    0.40325767    0.41487856    0.00000000    0.00000000
   10    0.43435150    0.00000000    0.00000000    0.40808446    0.00000000    0.00000000    0.03117756    0.03960125
   11    0.00000000    0.10437315   -0.03052965    0.00000000   -0.08658742   -0.08902771    0.00000000    0.00000000
   12    0.00000000   -0.03495837    0.15400750    0.00000000   -0.03796774   -0.03392319    0.00000000    0.00000000
   13   -0.22886594    0.00000000    0.00000000   -0.17003805    0.00000000    0.00000000    0.66731481    0.65047555
   14    0.00000000    0.03898992    0.12709960    0.00000000    0.07512336    0.07231306    0.00000000    0.00000000
   15    0.00000000    0.05355240   -0.08361391    0.00000000   -0.27968218   -0.26399208    0.00000000    0.00000000
   16    0.41333868    0.00000000    0.00000000   -0.33056627    0.00000000    0.00000000   -0.12570046    0.15689686
   17    0.00000000   -0.33425522   -0.04907708    0.00000000    0.31337167   -0.31792121    0.00000000    0.00000000
   18    0.00000000   -0.06984342    0.14000376    0.00000000    0.03022196   -0.02806829    0.00000000    0.00000000
   19   -0.25075945    0.00000000    0.00000000    0.25183056    0.00000000    0.00000000    0.19247434   -0.19276592
   20    0.00000000   -0.15593104    0.45687683    0.00000000   -0.18734599    0.17989009    0.00000000    0.00000000
   21    0.00000000   -0.11484738    0.02909363    0.00000000    0.31625458   -0.31578530    0.00000000    0.00000000
   22   -0.15883950    0.00000000    0.00000000    0.36312731    0.00000000    0.00000000    0.02952843   -0.11635279
   23    0.00000000   -0.53960279   -0.43860869    0.00000000   -0.10172529    0.09967720    0.00000000    0.00000000
   24    0.00000000   -0.19548875   -0.16802966    0.00000000   -0.40325767    0.41487856    0.00000000    0.00000000
   25    0.43435150    0.00000000    0.00000000   -0.40808446    0.00000000    0.00000000   -0.03117756    0.03960125
   26    0.00000000   -0.10437315   -0.03052965    0.00000000    0.08658742   -0.08902771    0.00000000    0.00000000
   27    0.00000000    0.03495837    0.15400750    0.00000000    0.03796774   -0.03392319    0.00000000    0.00000000
   28   -0.22886594    0.00000000    0.00000000    0.17003805    0.00000000    0.00000000   -0.66731481    0.65047555
   29    0.00000000   -0.03898992    0.12709960    0.00000000   -0.07512336    0.07231306    0.00000000    0.00000000
   30    0.00000000   -0.05355240   -0.08361391    0.00000000    0.27968218   -0.26399208    0.00000000    0.00000000
             17            18            19            20            21            22            23            24
    1   -0.42149367   -0.41592160    0.00000000    0.00000000    0.00000000    0.00000000    0.00000000    0.00000000
    2    0.00000000    0.00000000   -0.23846228   -0.23699427   -0.27038926   -0.23171086   -0.06312026    0.01301362
    3    0.00000000    0.00000000   -0.26010445   -0.22487571   -0.28771251   -0.29484942   -0.02530570    0.07568178
    4    0.08399442    0.07791971    0.00000000    0.00000000    0.00000000    0.00000000    0.00000000    0.00000000
    5    0.00000000    0.00000000    0.11421622    0.08718525    0.18544049    0.12824467   -0.11793131   -0.15875570
    6    0.00000000    0.00000000    0.45965176    0.45603977    0.05373371    0.05238244    0.07173846    0.06324785
    7    0.12630764    0.11811453    0.00000000    0.00000000    0.00000000    0.00000000    0.00000000    0.00000000
    8    0.00000000    0.00000000    0.10569024    0.10874409    0.08675270    0.13883715    0.19677610    0.15715489
    9    0.00000000    0.00000000   -0.12705446   -0.12791612    0.02698624    0.02908497   -0.13225082   -0.16398239
   10    0.54063518    0.54272894    0.00000000    0.00000000    0.00000000    0.00000000    0.00000000    0.00000000
   11    0.00000000    0.00000000   -0.04570621   -0.04348378   -0.12202651   -0.14375249   -0.10764033   -0.06249101
   12    0.00000000    0.00000000   -0.25737629   -0.26533800    0.16595317    0.37805228    0.58519091    0.48257857
   13    0.08395242    0.11149884    0.00000000    0.00000000    0.00000000    0.00000000    0.00000000    0.00000000
   14    0.00000000    0.00000000    0.07307884    0.08071795   -0.02932618   -0.03700527    0.01134236    0.02473188
   15    0.00000000    0.00000000   -0.22398869   -0.26588118    0.50526274    0.39383232   -0.25680080   -0.41941924
   16    0.42149367   -0.41592160    0.00000000    0.00000000    0.00000000    0.00000000    0.00000000    0.00000000
   17    0.00000000    0.00000000    0.23846228   -0.23699427   -0.27038926    0.23171086   -0.06312026   -0.01301362
   18    0.00000000    0.00000000    0.26010445   -0.22487571   -0.28771251    0.29484942   -0.02530570   -0.07568178
   19   -0.08399442    0.07791971    0.00000000    0.00000000    0.00000000    0.00000000    0.00000000    0.00000000
   20    0.00000000    0.00000000   -0.11421622    0.08718525    0.18544049   -0.12824467   -0.11793131    0.15875570
   21    0.00000000    0.00000000   -0.45965176    0.45603977    0.05373371   -0.05238244    0.07173846   -0.06324785
   22   -0.12630764    0.11811453    0.00000000    0.00000000    0.00000000    0.00000000    0.00000000    0.00000000
   23    0.00000000    0.00000000   -0.10569024    0.10874409    0.08675270   -0.13883715    0.19677610   -0.15715489
   24    0.00000000    0.00000000    0.12705446   -0.12791612    0.02698624   -0.02908497   -0.13225082    0.16398239
   25   -0.54063518    0.54272894    0.00000000    0.00000000    0.00000000    0.00000000    0.00000000    0.00000000
   26    0.00000000    0.00000000    0.04570621   -0.04348378   -0.12202651    0.14375249   -0.10764033    0.06249101
   27    0.00000000    0.00000000    0.25737629   -0.26533800    0.16595317   -0.37805228    0.58519091   -0.48257857
   28   -0.08395242    0.11149884    0.00000000    0.00000000    0.00000000    0.00000000    0.00000000    0.00000000
   29    0.00000000    0.00000000   -0.07307884    0.08071795   -0.02932618    0.03700527    0.01134236   -0.02473188
   30    0.00000000    0.00000000    0.22398869   -0.26588118    0.50526274   -0.39383232   -0.25680080    0.41941924
             25            26            27            28            29            30
    1    0.00000000    0.00000000    0.00000000    0.00000000    0.00000000    0.00000000
    2   -0.33248030   -0.30114105   -0.20513223   -0.20660648    0.00243069   -0.00850302
    3    0.43365894    0.46331313   -0.02333844   -0.02275563   -0.02526867    0.00039006
    4    0.00000000    0.00000000    0.00000000    0.00000000    0.00000000    0.00000000
    5    0.02535428    0.02442545    0.00818315    0.00409407   -0.17003678   -0.16883502
    6   -0.07875939   -0.09415451    0.00201405    0.00093291   -0.01743749   -0.02685221
    7    0.00000000    0.00000000    0.00000000    0.00000000    0.00000000    0.00000000
    8    0.25952304    0.25635934    0.00757838    0.00904381   -0.00997944    0.00037803
    9   -0.29627097   -0.30196038   -0.00656853   -0.00667579    0.01321866   -0.00069373
   10    0.00000000    0.00000000    0.00000000    0.00000000    0.00000000    0.00000000
   11   -0.07917894   -0.06526875    0.66861645    0.66854045    0.00847432    0.02264905
   12   -0.11282188   -0.11900653    0.09798159    0.09783202    0.01065554    0.00464103
   13    0.00000000    0.00000000    0.00000000    0.00000000    0.00000000    0.00000000
   14    0.01319790   -0.01419822   -0.02357247   -0.00963209    0.67809610    0.67779192
   15    0.14230226    0.09833103    0.00069484    0.00646084    0.09932280    0.10375073
   16    0.00000000    0.00000000    0.00000000    0.00000000    0.00000000    0.00000000
   17    0.33248030   -0.30114105   -0.20513223    0.20660648   -0.00243069   -0.00850302
   18   -0.43365894    0.46331313   -0.02333844    0.02275563    0.02526867    0.00039006
   19    0.00000000    0.00000000    0.00000000    0.00000000    0.00000000    0.00000000
   20   -0.02535428    0.02442545    0.00818315   -0.00409407    0.17003678   -0.16883502
   21    0.07875939   -0.09415451    0.00201405   -0.00093291    0.01743749   -0.02685221
   22    0.00000000    0.00000000    0.00000000    0.00000000    0.00000000    0.00000000
   23   -0.25952304    0.25635934    0.00757838   -0.00904381    0.00997944    0.00037803
   24    0.29627097   -0.30196038   -0.00656853    0.00667579   -0.01321866   -0.00069373
   25    0.00000000    0.00000000    0.00000000    0.00000000    0.00000000    0.00000000
   26    0.07917894   -0.06526875    0.66861645   -0.66854045   -0.00847432    0.02264905
   27    0.11282188   -0.11900653    0.09798159   -0.09783202   -0.01065554    0.00464103
   28    0.00000000    0.00000000    0.00000000    0.00000000    0.00000000    0.00000000
   29   -0.01319790   -0.01419822   -0.02357247    0.00963209   -0.67809610    0.67779192
   30   -0.14230226    0.09833103    0.00069484   -0.00646084   -0.09932280    0.10375073

   Low Vibration      Wavenumber
        Nr             [1/cm] 
        1                0.00
        2                0.00
        3                0.00
        4                0.00
        5                0.00
        6                0.00

     Vibration        Wavenumber
        Nr             [1/cm] 
        1               75.18
        2              164.09
        3              167.31
        4              178.68
        5              219.40
        6              243.80
        7              736.78
        8              750.44
        9              909.86
       10              958.55
       11             1210.23
       12             1213.14
       13             1346.61
       14             1350.23
       15             1498.84
       16             1519.52
       17             1553.15
       18             1563.30
       19             1926.72
       20             1978.91
       21             3263.71
       22             3266.50
       23             3818.23
       24             3864.60

 FREQUENCIES * CALCULATION OF NORMAL MODES FOR HF-SCF


 Atomic Coordinates

  Nr  Atom  Charge       X              Y              Z

   1   C     6.00    0.000000000   -3.664741968   -0.428767672
   2   O     8.00    0.000000000   -3.076120774    1.952411313
   3   O     8.00    0.000000000   -2.213294273   -2.146087744
   4   H     1.00    0.000000000   -5.696762300   -0.702453831
   5   H     1.00    0.000000000   -1.276602851    2.176621622
   6   C     6.00    0.000000000    3.664741968    0.428767672
   7   O     8.00    0.000000000    3.076120774   -1.952411313
   8   O     8.00    0.000000000    2.213294273    2.146087744
   9   H     1.00    0.000000000    5.696762300    0.702453831
  10   H     1.00    0.000000000    1.276602851   -2.176621622

 Gradient norm at reference geometry: 0.42926D-03

 Normal Modes

                              1 Au        2 Ag        3 Au        4 Ag        5 Bu 
 Wavenumbers [cm-1]           75.18      164.09      167.31      178.68      219.40
 Intensities [km/mol]          0.00        0.00        0.00        0.00        0.00
 Intensities [relative]        0.00        0.00        0.00        0.00        0.00
           CX1             -0.00968     0.00000     0.11932     0.00000     0.00000
           CY1             -0.00000     0.04488    -0.00000     0.09649    -0.01417
           CZ1             -0.00000    -0.01483     0.00000     0.02016     0.04042
           OX2             -0.11729     0.00000    -0.06270    -0.00000     0.00000
           OY2             -0.00000     0.13754    -0.00000     0.03899     0.11424
           OZ2             -0.00000    -0.04249     0.00000     0.02872     0.00727
           OX3              0.13075    -0.00000    -0.03972    -0.00000    -0.00000
           OY3             -0.00000    -0.02608    -0.00000     0.13492    -0.10967
           OZ3             -0.00000    -0.07837     0.00000     0.04888    -0.04201
           HX4             -0.06503     0.00000     0.43266     0.00000     0.00000
           HY4             -0.00000     0.03485    -0.00000     0.10397    -0.03041
           HZ4             -0.00000     0.06339     0.00000    -0.03482     0.15341
           HX5             -0.03329    -0.00000    -0.22798    -0.00000    -0.00000
           HY5             -0.00000     0.14512    -0.00000     0.03884     0.12661
           HZ5             -0.00000    -0.07792     0.00000     0.05334    -0.08329
           CX6             -0.00968     0.00000     0.11932    -0.00000    -0.00000
           CY6             -0.00000    -0.04488     0.00000    -0.09649    -0.01417
           CZ6              0.00000     0.01483    -0.00000    -0.02016     0.04042
           OX7             -0.11729    -0.00000    -0.06270    -0.00000     0.00000
           OY7              0.00000    -0.13754     0.00000    -0.03899     0.11424
           OZ7              0.00000     0.04249    -0.00000    -0.02872     0.00727
           OX8              0.13075     0.00000    -0.03972    -0.00000    -0.00000
           OY8             -0.00000     0.02608     0.00000    -0.13492    -0.10967
           OZ8              0.00000     0.07837    -0.00000    -0.04888    -0.04201
           HX9             -0.06503     0.00000     0.43266     0.00000    -0.00000
           HY9             -0.00000    -0.03485     0.00000    -0.10397    -0.03041
           HZ9              0.00000    -0.06339     0.00000     0.03482     0.15341
           HX10            -0.03329    -0.00000    -0.22798    -0.00000     0.00000
           HY10             0.00000    -0.14512     0.00000    -0.03884     0.12661
           HZ10            -0.00000     0.07792    -0.00000    -0.05334    -0.08329

                              6 Bg        7 Ag        8 Bu        9 Bg       10 Au 
 Wavenumbers [cm-1]          243.80      736.78      750.44      909.86      958.55
 Intensities [km/mol]          0.00        0.00        0.00        0.00        0.00
 Intensities [relative]        0.00        0.00        0.00        0.00        0.00
           CX1              0.09543     0.00000     0.00000     0.03629     0.04529
           CY1              0.00000    -0.09046    -0.09178    -0.00000     0.00000
           CZ1              0.00000    -0.00872    -0.00810     0.00000    -0.00000
           OX2             -0.06297     0.00000     0.00000    -0.04813    -0.04820
           OY2             -0.00000     0.04684     0.04498     0.00000    -0.00000
           OZ2              0.00000    -0.07908    -0.07896     0.00000    -0.00000
           OX3             -0.09080    -0.00000    -0.00000    -0.00738    -0.02909
           OY3              0.00000     0.02544     0.02492     0.00000    -0.00000
           OZ3              0.00000     0.10083     0.10374     0.00000    -0.00000
           HX4              0.40650    -0.00000    -0.00000     0.03106     0.03945
           HY4              0.00000    -0.08625    -0.08868     0.00000    -0.00000
           HZ4             -0.00000    -0.03782    -0.03379    -0.00000     0.00000
           HX5             -0.16938    -0.00000    -0.00000     0.66472     0.64795
           HY5             -0.00000     0.07483     0.07203     0.00000    -0.00000
           HZ5              0.00000    -0.27859    -0.26297    -0.00000     0.00000
           CX6             -0.09543     0.00000     0.00000    -0.03629     0.04529
           CY6             -0.00000     0.09046    -0.09178     0.00000    -0.00000
           CZ6             -0.00000     0.00872    -0.00810    -0.00000     0.00000
           OX7              0.06297    -0.00000    -0.00000     0.04813    -0.04820
           OY7             -0.00000    -0.04684     0.04498     0.00000    -0.00000
           OZ7             -0.00000     0.07908    -0.07896    -0.00000     0.00000
           OX8              0.09080    -0.00000    -0.00000     0.00738    -0.02909
           OY8              0.00000    -0.02544     0.02492    -0.00000     0.00000
           OZ8              0.00000    -0.10083     0.10374     0.00000    -0.00000
           HX9             -0.40650    -0.00000    -0.00000    -0.03106     0.03945
           HY9              0.00000     0.08625    -0.08868     0.00000    -0.00000
           HZ9             -0.00000     0.03782    -0.03379    -0.00000     0.00000
           HX10             0.16938     0.00000     0.00000    -0.66472     0.64795
           HY10            -0.00000    -0.07483     0.07203    -0.00000     0.00000
           HZ10             0.00000     0.27859    -0.26297     0.00000    -0.00000

                             11 Bg       12 Au       13 Ag       14 Bu       15 Bu 
 Wavenumbers [cm-1]         1210.23     1213.14     1346.61     1350.23     1498.84
 Intensities [km/mol]          0.00        0.00        0.00        0.00        0.00
 Intensities [relative]        0.00        0.00        0.00        0.00        0.00
           CX1             -0.12167    -0.12007    -0.00000    -0.00000    -0.00000
           CY1              0.00000    -0.00000    -0.06884    -0.06841    -0.07805
           CZ1              0.00000    -0.00000    -0.07509    -0.06492    -0.08306
           OX2              0.02100     0.01948     0.00000     0.00000     0.00000
           OY2             -0.00000     0.00000     0.02856     0.02180     0.04637
           OZ2             -0.00000     0.00000     0.11493     0.11403     0.01344
           OX3              0.03158     0.02953    -0.00000    -0.00000     0.00000
           OY3             -0.00000    -0.00000     0.02643     0.02719     0.02169
           OZ3              0.00000    -0.00000    -0.03177    -0.03198     0.00675
           HX4              0.53853     0.54062    -0.00000    -0.00000    -0.00000
           HY4             -0.00000     0.00000    -0.04553    -0.04331    -0.12155
           HZ4              0.00000    -0.00000    -0.25638    -0.26431     0.16531
           HX5              0.08363     0.11107    -0.00000    -0.00000     0.00000
           HY5             -0.00000     0.00000     0.07279     0.08040    -0.02921
           HZ5              0.00000    -0.00000    -0.22312    -0.26485     0.50330
           CX6              0.12167    -0.12007     0.00000     0.00000    -0.00000
           CY6             -0.00000     0.00000     0.06884    -0.06841    -0.07805
           CZ6              0.00000    -0.00000     0.07509    -0.06492    -0.08306
           OX7             -0.02100     0.01948    -0.00000    -0.00000     0.00000
           OY7             -0.00000     0.00000    -0.02856     0.02180     0.04637
           OZ7              0.00000    -0.00000    -0.11493     0.11403     0.01344
           OX8             -0.03158     0.02953    -0.00000    -0.00000     0.00000
           OY8              0.00000    -0.00000    -0.02643     0.02719     0.02169
           OZ8             -0.00000     0.00000     0.03177    -0.03198     0.00675
           HX9             -0.53853     0.54062    -0.00000    -0.00000     0.00000
           HY9             -0.00000     0.00000     0.04553    -0.04331    -0.12155
           HZ9              0.00000    -0.00000     0.25638    -0.26431     0.16531
           HX10            -0.08363     0.11107     0.00000     0.00000    -0.00000
           HY10             0.00000    -0.00000    -0.07279     0.08040    -0.02921
           HZ10            -0.00000     0.00000     0.22312    -0.26485     0.50330

                             16 Ag       17 Bu       18 Ag       19 Ag       20 Bu 
 Wavenumbers [cm-1]         1519.52     1553.15     1563.30     1926.72     1978.91
 Intensities [km/mol]          0.00        0.00        0.00        0.00        0.00
 Intensities [relative]        0.00        0.00        0.00        0.00        0.00
           CX1              0.00000     0.00000     0.00000    -0.00000    -0.00000
           CY1             -0.06689    -0.01822     0.00376    -0.09598    -0.08693
           CZ1             -0.08512    -0.00731     0.02185     0.12519     0.13375
           OX2              0.00000    -0.00000    -0.00000    -0.00000    -0.00000
           OY2              0.03207    -0.02949    -0.03970     0.00634     0.00611
           OZ2              0.01310     0.01794     0.01581    -0.01969    -0.02354
           OX3              0.00000     0.00000     0.00000    -0.00000    -0.00000
           OY3              0.03471     0.04920     0.03929     0.06489     0.06410
           OZ3              0.00727    -0.03307    -0.04100    -0.07408    -0.07550
           HX4             -0.00000    -0.00000     0.00000    -0.00000     0.00000
           HY4             -0.14319    -0.10722    -0.06225    -0.07887    -0.06501
           HZ4              0.37658     0.58291     0.48070    -0.11238    -0.11854
           HX5              0.00000     0.00000     0.00000    -0.00000     0.00000
           HY5             -0.03686     0.01130     0.02464     0.01315    -0.01414
           HZ5              0.39230    -0.25580    -0.41779     0.14175     0.09795
           CX6             -0.00000    -0.00000    -0.00000     0.00000    -0.00000
           CY6              0.06689    -0.01822    -0.00376     0.09598    -0.08693
           CZ6              0.08512    -0.00731    -0.02185    -0.12519     0.13375
           OX7              0.00000     0.00000    -0.00000    -0.00000     0.00000
           OY7             -0.03207    -0.02949     0.03970    -0.00634     0.00611
           OZ7             -0.01310     0.01794    -0.01581     0.01969    -0.02354
           OX8              0.00000     0.00000    -0.00000    -0.00000     0.00000
           OY8             -0.03471     0.04920    -0.03929    -0.06489     0.06410
           OZ8             -0.00727    -0.03307     0.04100     0.07408    -0.07550
           HX9              0.00000     0.00000    -0.00000    -0.00000     0.00000
           HY9              0.14319    -0.10722     0.06225     0.07887    -0.06501
           HZ9             -0.37658     0.58291    -0.48070     0.11238    -0.11854
           HX10            -0.00000    -0.00000    -0.00000     0.00000    -0.00000
           HY10             0.03686     0.01130    -0.02464    -0.01315    -0.01414
           HZ10            -0.39230    -0.25580     0.41779    -0.14175     0.09795

                             21 Bu       22 Ag       23 Ag       24 Bu 
 Wavenumbers [cm-1]         3263.71     3266.50     3818.23     3864.60
 Intensities [km/mol]          0.00        0.00        0.00        0.00
 Intensities [relative]        0.00        0.00        0.00        0.00
           CX1             -0.00000    -0.00000     0.00000    -0.00000
           CY1             -0.05922    -0.05964     0.00070    -0.00245
           CZ1             -0.00674    -0.00657    -0.00729     0.00011
           OX2              0.00000     0.00000     0.00000    -0.00000
           OY2              0.00205     0.00102    -0.04252    -0.04222
           OZ2              0.00050     0.00023    -0.00436    -0.00671
           OX3             -0.00000    -0.00000     0.00000     0.00000
           OY3              0.00189     0.00226    -0.00250     0.00009
           OZ3             -0.00164    -0.00167     0.00331    -0.00017
           HX4             -0.00000    -0.00000    -0.00000    -0.00000
           HY4              0.66602     0.66594     0.00844     0.02256
           HZ4              0.09760     0.09745     0.01061     0.00462
           HX5              0.00000     0.00000     0.00000     0.00000
           HY5             -0.02348    -0.00959     0.67546     0.67516
           HZ5              0.00069     0.00644     0.09894     0.10335
           CX6              0.00000    -0.00000     0.00000     0.00000
           CY6             -0.05922     0.05964    -0.00070    -0.00245
           CZ6             -0.00674     0.00657     0.00729     0.00011
           OX7              0.00000    -0.00000    -0.00000     0.00000
           OY7              0.00205    -0.00102     0.04252    -0.04222
           OZ7              0.00050    -0.00023     0.00436    -0.00671
           OX8             -0.00000     0.00000    -0.00000     0.00000
           OY8              0.00189    -0.00226     0.00250     0.00009
           OZ8             -0.00164     0.00167    -0.00331    -0.00017
           HX9              0.00000     0.00000    -0.00000    -0.00000
           HY9              0.66602    -0.66594    -0.00844     0.02256
           HZ9              0.09760    -0.09745    -0.01061     0.00462
           HX10             0.00000     0.00000    -0.00000    -0.00000
           HY10            -0.02348     0.00959    -0.67546     0.67516
           HZ10             0.00069    -0.00644    -0.09894     0.10335


 Normal Modes of low/zero frequencies

                                  1           2           3           4           5
 Wavenumbers [cm-1]            0.00        0.00        0.00        0.00        0.00
 Intensities [km/mol]          0.00        0.00        0.00        0.00        0.00
 Intensities [relative]        0.00        0.00        0.00        0.00        0.00
           CX1             -0.00000     0.00000    -0.00000     0.16525     0.00000
           CY1              0.03453    -0.07365     0.03299     0.00000    -0.02544
           CZ1             -0.02404     0.04647    -0.01957     0.00000     0.08618
           OX2              0.02600    -0.05658     0.01493     0.12816     0.10962
           OY2             -0.01954    -0.07275     0.03362     0.00000     0.00451
           OZ2             -0.01068     0.04625    -0.01973     0.00000     0.07878
           OX3             -0.01844     0.05831     0.02715     0.14308    -0.07992
           OY3              0.07352    -0.07430     0.03254     0.00000    -0.04703
           OZ3              0.00892     0.04592    -0.01996     0.00000     0.06793
           HX4             -0.00332    -0.01182    -0.04142     0.22074    -0.01170
           HY4              0.04074    -0.07375     0.03292     0.00000    -0.02888
           HZ4             -0.07018     0.04724    -0.01903     0.00000     0.11173
           HX5              0.02875    -0.04564     0.05159     0.07919     0.11914
           HY5             -0.02463    -0.07266     0.03368     0.00000     0.00733
           HZ5              0.03019     0.04557    -0.02020     0.00000     0.05615
           CX6              0.01057     0.04602     0.14924    -0.03371     0.03620
           CY6              0.01506    -0.07333     0.03322     0.00000    -0.01465
           CZ6              0.14239     0.04370    -0.02151     0.00000    -0.00599
           OX7             -0.01543     0.10261     0.13431     0.00338    -0.07342
           OY7              0.06913    -0.07423     0.03259     0.00000    -0.04460
           OZ7              0.12902     0.04392    -0.02135     0.00000     0.00141
           OX8              0.02901    -0.01228     0.12209    -0.01154     0.11612
           OY8             -0.02394    -0.07267     0.03367     0.00000     0.00694
           OZ8              0.10943     0.04425    -0.02113     0.00000     0.01226
           HX9              0.01389     0.05785     0.19066    -0.08920     0.04790
           HY9              0.00884    -0.07322     0.03329     0.00000    -0.01121
           HZ9              0.18853     0.04293    -0.02205    -0.00000    -0.03155
           HX10            -0.01818     0.09166     0.09766     0.05235    -0.08294
           HY10             0.07422    -0.07431     0.03253     0.00000    -0.04742
           HZ10             0.08816     0.04460    -0.02088     0.00000     0.02404

                                  6
 Wavenumbers [cm-1]            0.00
 Intensities [km/mol]          0.00
 Intensities [relative]        0.00
           CX1             -0.00000
           CY1              0.05175
           CZ1              0.11026
           OX2             -0.05351
           OY2              0.08604
           OZ2              0.10178
           OX3              0.03869
           OY3              0.02702
           OZ3              0.08936
           HX4              0.00605
           HY4              0.04781
           HZ4              0.13952
           HX5             -0.05846
           HY5              0.08927
           HZ5              0.07587
           CX6             -0.01890
           CY6              0.06410
           CZ6              0.00471
           OX7              0.03461
           OY7              0.02981
           OZ7              0.01319
           OX8             -0.05759
           OY8              0.08883
           OZ8              0.02561
           HX9             -0.02495
           HY9              0.06804
           HZ9             -0.02455
           HX10             0.03956
           HY10             0.02658
           HZ10             0.03910


 Frequencies dumped to record   5400.2
 Frequency information read from record  5400.2

 Zero point energy:  0.07695142 [H]    16888.89 [1/CM]      202.04 [KJ/MOL]


 **********************************************************************************************************************************
 DATASETS  * FILE   NREC   LENGTH (MB)   RECORD NAMES
              1      19       70.12       500      610      700      900      950      970     1000      129      960     1100   
                                          VAR    BASINP    GEOM    SYMINP    ZMAT    AOBASIS   BASIS     P2S    ABASIS      S 
                                         1400     1410     1200     1210     1080     1600     1650     1300     1700   
                                           T        V       H0       H01     AOSYM     SMH    MOLCAS    ERIS     OPER   

              2       7        0.73       700     1000      520     2100     5300     5450     5400   
                                         GEOM     BASIS   MCVARS     RHF     HESS     NMOD     FREQ   

              4       5        1.63      4100     4000     4200     4300     4400   

 PROGRAMS   *        TOTAL      FREQ      OPTG    HF-SCF       INT
 CPU TIMES  *       117.00     63.78     51.00      0.45      1.66
 REAL TIME  *       122.03 SEC
 DISK USED  *       196.78 MB
 **********************************************************************************************************************************

 Dump information in style MOLDEN to formic_acid_dimer.molden                                                        

 Molecular orbitals read from record     2100.2  Type=RHF/CANONICAL  
 Occupation numbers read from record     2100.2  Type=RHF/RHF  
 Orbital energies read from record       2100.2  Type=RHF/CANONICAL  
 Redundancy group numbers read from rec  2100.2  Type=RHF/RHF  

 DUMP ORBITAL  1.1 AS ORBITAL    1  occ=    2.0000  eig=  -20.6082  GROUP=   2
 DUMP ORBITAL  1.3 AS ORBITAL    2  occ=    2.0000  eig=  -20.6082  GROUP=   2
 DUMP ORBITAL  2.3 AS ORBITAL    3  occ=    2.0000  eig=  -20.5635  GROUP=   2
 DUMP ORBITAL  2.1 AS ORBITAL    4  occ=    2.0000  eig=  -20.5635  GROUP=   2
 DUMP ORBITAL  3.3 AS ORBITAL    5  occ=    2.0000  eig=  -11.3962  GROUP=   2
 DUMP ORBITAL  3.1 AS ORBITAL    6  occ=    2.0000  eig=  -11.3962  GROUP=   2
 DUMP ORBITAL  4.1 AS ORBITAL    7  occ=    2.0000  eig=   -1.4975  GROUP=   2
 DUMP ORBITAL  4.3 AS ORBITAL    8  occ=    2.0000  eig=   -1.4892  GROUP=   2
 DUMP ORBITAL  5.3 AS ORBITAL    9  occ=    2.0000  eig=   -1.3937  GROUP=   2
 DUMP ORBITAL  5.1 AS ORBITAL   10  occ=    2.0000  eig=   -1.3849  GROUP=   2
 DUMP ORBITAL  6.1 AS ORBITAL   11  occ=    2.0000  eig=   -0.9191  GROUP=   2
 DUMP ORBITAL  6.3 AS ORBITAL   12  occ=    2.0000  eig=   -0.8947  GROUP=   2
 DUMP ORBITAL  7.3 AS ORBITAL   13  occ=    2.0000  eig=   -0.7599  GROUP=   2
 DUMP ORBITAL  7.1 AS ORBITAL   14  occ=    2.0000  eig=   -0.7398  GROUP=   2
 DUMP ORBITAL  8.3 AS ORBITAL   15  occ=    2.0000  eig=   -0.7305  GROUP=   2
 DUMP ORBITAL  8.1 AS ORBITAL   16  occ=    2.0000  eig=   -0.7043  GROUP=   2
 DUMP ORBITAL  1.2 AS ORBITAL   17  occ=    2.0000  eig=   -0.6501  GROUP=   2
 DUMP ORBITAL  1.4 AS ORBITAL   18  occ=    2.0000  eig=   -0.6431  GROUP=   2
 DUMP ORBITAL  9.1 AS ORBITAL   19  occ=    2.0000  eig=   -0.6147  GROUP=   2
 DUMP ORBITAL  9.3 AS ORBITAL   20  occ=    2.0000  eig=   -0.5823  GROUP=   2
 DUMP ORBITAL  2.4 AS ORBITAL   21  occ=    2.0000  eig=   -0.5033  GROUP=   2
 DUMP ORBITAL  2.2 AS ORBITAL   22  occ=    2.0000  eig=   -0.4958  GROUP=   2
 DUMP ORBITAL 10.1 AS ORBITAL   23  occ=    2.0000  eig=   -0.4909  GROUP=   2
 DUMP ORBITAL 10.3 AS ORBITAL   24  occ=    2.0000  eig=   -0.4707  GROUP=   2

 Total charge:      48.000000
 Frequency information read from record  5400.2

 **********************************************************************************************************************************

 HF/6-311G(D,P)//HF/6-311G(D,P) energy=   -377.664112392770

    OPTG(HF-SCF)          HF-SCF
   -377.66411239   -377.65680067
 **********************************************************************************************************************************
 Molpro calculation terminated
