 Entering Gaussian System, Link 0=g16
 Input=h2o_dimer.com
 Output=h2o_dimer.log
 Initial command:
 /usr/local/g16/l1.exe "/scratch/lme/Gau-1866480.inp" -scrdir="/scratch/lme/"
 Entering Link 1 = /usr/local/g16/l1.exe PID=   1866482.
  
 Copyright (c) 1988,1990,1992,1993,1995,1998,2003,2009,2016,
            Gaussian, Inc.  All Rights Reserved.
  
 This is part of the Gaussian(R) 16 program.  It is based on
 the Gaussian(R) 09 system (copyright 2009, Gaussian, Inc.),
 the Gaussian(R) 03 system (copyright 2003, Gaussian, Inc.),
 the Gaussian(R) 98 system (copyright 1998, Gaussian, Inc.),
 the Gaussian(R) 94 system (copyright 1995, Gaussian, Inc.),
 the Gaussian 92(TM) system (copyright 1992, Gaussian, Inc.),
 the Gaussian 90(TM) system (copyright 1990, Gaussian, Inc.),
 the Gaussian 88(TM) system (copyright 1988, Gaussian, Inc.),
 the Gaussian 86(TM) system (copyright 1986, Carnegie Mellon
 University), and the Gaussian 82(TM) system (copyright 1983,
 Carnegie Mellon University). Gaussian is a federally registered
 trademark of Gaussian, Inc.
  
 This software contains proprietary and confidential information,
 including trade secrets, belonging to Gaussian, Inc.
  
 This software is provided under written license and may be
 used, copied, transmitted, or stored only in accord with that
 written license.
  
 The following legend is applicable only to US Government
 contracts under FAR:
  
                    RESTRICTED RIGHTS LEGEND
  
 Use, reproduction and disclosure by the US Government is
 subject to restrictions as set forth in subparagraphs (a)
 and (c) of the Commercial Computer Software - Restricted
 Rights clause in FAR 52.227-19.
  
 Gaussian, Inc.
 340 Quinnipiac St., Bldg. 40, Wallingford CT 06492
  
  
 ---------------------------------------------------------------
 Warning -- This program may not be used in any manner that
 competes with the business of Gaussian, Inc. or will provide
 assistance to any competitor of Gaussian, Inc.  The licensee
 of this program is prohibited from giving any competitor of
 Gaussian, Inc. access to this program.  By using this program,
 the user acknowledges that Gaussian, Inc. is engaged in the
 business of creating and licensing software in the field of
 computational chemistry and represents and warrants to the
 licensee that it is not a competitor of Gaussian, Inc. and that
 it will not use this program in any manner prohibited above.
 ---------------------------------------------------------------
  

 Cite this work as:
 Gaussian 16, Revision A.03,
 M. J. Frisch, G. W. Trucks, H. B. Schlegel, G. E. Scuseria, 
 M. A. Robb, J. R. Cheeseman, G. Scalmani, V. Barone, 
 G. A. Petersson, H. Nakatsuji, X. Li, M. Caricato, A. V. Marenich, 
 J. Bloino, B. G. Janesko, R. Gomperts, B. Mennucci, H. P. Hratchian, 
 J. V. Ortiz, A. F. Izmaylov, J. L. Sonnenberg, D. Williams-Young, 
 F. Ding, F. Lipparini, F. Egidi, J. Goings, B. Peng, A. Petrone, 
 T. Henderson, D. Ranasinghe, V. G. Zakrzewski, J. Gao, N. Rega, 
 G. Zheng, W. Liang, M. Hada, M. Ehara, K. Toyota, R. Fukuda, 
 J. Hasegawa, M. Ishida, T. Nakajima, Y. Honda, O. Kitao, H. Nakai, 
 T. Vreven, K. Throssell, J. A. Montgomery, Jr., J. E. Peralta, 
 F. Ogliaro, M. J. Bearpark, J. J. Heyd, E. N. Brothers, K. N. Kudin, 
 V. N. Staroverov, T. A. Keith, R. Kobayashi, J. Normand, 
 K. Raghavachari, A. P. Rendell, J. C. Burant, S. S. Iyengar, 
 J. Tomasi, M. Cossi, J. M. Millam, M. Klene, C. Adamo, R. Cammi, 
 J. W. Ochterski, R. L. Martin, K. Morokuma, O. Farkas, 
 J. B. Foresman, and D. J. Fox, Gaussian, Inc., Wallingford CT, 2016.
 
 ******************************************
 Gaussian 16:  ES64L-G16RevA.03 25-Dec-2016
                16-Sep-2024 
 ******************************************
 %chk=h2o_dimer.chk
 ---------------------------------------
 #p opt freq hf/6-311g geom=connectivity
 ---------------------------------------
 1/18=20,19=15,38=1,57=2/1,3;
 2/9=110,12=2,17=6,18=5,40=1/2;
 3/5=4,6=6,11=9,25=1,30=1,71=1/1,2,3;
 4//1;
 5/5=2,38=5/2;
 6/7=2,8=2,9=2,10=2,28=1/1;
 7//1,2,3,16;
 1/18=20,19=15/3(2);
 2/9=110/2;
 99//99;
 2/9=110/2;
 3/5=4,6=6,11=9,25=1,30=1,71=1/1,2,3;
 4/5=5,16=3,69=1/1;
 5/5=2,38=5/2;
 7//1,2,3,16;
 1/18=20,19=15/3(-5);
 2/9=110/2;
 6/7=2,8=2,9=2,10=2,19=2,28=1/1;
 99/9=1/99;
 Leave Link    1 at Mon Sep 16 13:58:41 2024, MaxMem=           0 cpu:               0.0 elap:               0.0
 (Enter /usr/local/g16/l101.exe)
 -------------------
 Title Card Required
 -------------------
 Symbolic Z-matrix:
 Charge =  0 Multiplicity = 1
 O                    -4.3239    0.71089  -0.2677 
 H                    -3.16667   0.86044   0.10629 
 H                    -4.551    -0.21556  -0.37597 
 O                    -1.0851    0.85819   0.29828 
 H                    -0.2609    1.18692   0.74848 
 H                    -1.28317   1.41313  -0.45962 
 
 Add virtual bond connecting atoms O4         and H2         Dist= 3.95D+00.
 Add virtual bond connecting atoms H6         and H2         Dist= 3.86D+00.
 Add atom      2 valence  3 ND=      1 dihedral       1      2      4      6
 Add atom      4 valence  3 ND=      2 dihedral       2      4      5      6
 ITRead=  0  0  0  0  0  0
 MicOpt= -1 -1 -1 -1 -1 -1
 NAtoms=      6 NQM=        6 NQMF=       0 NMMI=      0 NMMIF=      0
                NMic=       0 NMicF=      0.
                    Isotopes and Nuclear Properties:
 (Nuclear quadrupole moments (NQMom) in fm**2, nuclear magnetic moments (NMagM)
  in nuclear magnetons)

  Atom         1           2           3           4           5           6
 IAtWgt=          16           1           1          16           1           1
 AtmWgt=  15.9949146   1.0078250   1.0078250  15.9949146   1.0078250   1.0078250
 NucSpn=           0           1           1           0           1           1
 AtZEff=  -0.0000000  -0.0000000  -0.0000000  -0.0000000  -0.0000000  -0.0000000
 NQMom=    0.0000000   0.0000000   0.0000000   0.0000000   0.0000000   0.0000000
 NMagM=    0.0000000   2.7928460   2.7928460   0.0000000   2.7928460   2.7928460
 AtZNuc=   8.0000000   1.0000000   1.0000000   8.0000000   1.0000000   1.0000000
 Leave Link  101 at Mon Sep 16 13:58:41 2024, MaxMem=   104857600 cpu:               0.1 elap:               0.1
 (Enter /usr/local/g16/l103.exe)

 GradGradGradGradGradGradGradGradGradGradGradGradGradGradGradGradGradGrad
 Berny optimization.
 Initialization pass.
                           ----------------------------
                           !    Initial Parameters    !
                           ! (Angstroms and Degrees)  !
 --------------------------                            --------------------------
 ! Name  Definition              Value          Derivative Info.                !
 --------------------------------------------------------------------------------
 ! R1    R(1,2)                  1.2253         estimate D2E/DX2                !
 ! R2    R(1,3)                  0.96           estimate D2E/DX2                !
 ! R3    R(2,4)                  2.0904         estimate D2E/DX2                !
 ! R4    R(2,6)                  2.0429         estimate D2E/DX2                !
 ! R5    R(4,5)                  0.995          estimate D2E/DX2                !
 ! R6    R(4,6)                  0.96           estimate D2E/DX2                !
 ! A1    A(2,1,3)              112.063          estimate D2E/DX2                !
 ! A2    A(1,2,6)              145.0071         estimate D2E/DX2                !
 ! A3    A(2,4,5)              150.0            estimate D2E/DX2                !
 ! A4    A(5,4,6)              109.7017         estimate D2E/DX2                !
 ! A5    L(1,2,4,3,-1)         170.7156         estimate D2E/DX2                !
 ! A6    L(1,2,4,3,-2)         159.9098         estimate D2E/DX2                !
 ! D1    D(3,1,2,6)            105.2989         estimate D2E/DX2                !
 ! D2    D(3,1,4,5)           -137.9628         estimate D2E/DX2                !
 ! D3    D(1,2,4,6)             66.5265         estimate D2E/DX2                !
 ! D4    D(2,4,5,6)            -91.6281         estimate D2E/DX2                !
 --------------------------------------------------------------------------------
 Trust Radius=3.00D-01 FncErr=1.00D-07 GrdErr=1.00D-07 EigMax=2.50D+02 EigMin=1.00D-04
 Number of steps in this run=     26 maximum allowed number of steps=    100.
 GradGradGradGradGradGradGradGradGradGradGradGradGradGradGradGradGradGrad

 Leave Link  103 at Mon Sep 16 13:58:41 2024, MaxMem=   104857600 cpu:               0.0 elap:               0.0
 (Enter /usr/local/g16/l202.exe)
                          Input orientation:                          
 ---------------------------------------------------------------------
 Center     Atomic      Atomic             Coordinates (Angstroms)
 Number     Number       Type             X           Y           Z
 ---------------------------------------------------------------------
      1          8           0       -4.323900    0.710891   -0.267698
      2          1           0       -3.166667    0.860444    0.106293
      3          1           0       -4.551001   -0.215556   -0.375966
      4          8           0       -1.085098    0.858185    0.298278
      5          1           0       -0.260896    1.186924    0.748478
      6          1           0       -1.283169    1.413127   -0.459619
 ---------------------------------------------------------------------
                    Distance matrix (angstroms):
                    1          2          3          4          5
     1  O    0.000000
     2  H    1.225326   0.000000
     3  H    0.960000   1.818442   0.000000
     4  O    3.291179   2.090404   3.690529   0.000000
     5  H    4.215118   2.993742   4.651486   0.995017   0.000000
     6  H    3.126661   2.042860   3.652167   0.960000   1.598658
                    6
     6  H    0.000000
 Stoichiometry    H4O2
 Framework group  C1[X(H4O2)]
 Deg. of freedom    12
 Full point group                 C1      NOp   1
 Largest Abelian subgroup         C1      NOp   1
 Largest concise Abelian subgroup C1      NOp   1
                         Standard orientation:                         
 ---------------------------------------------------------------------
 Center     Atomic      Atomic             Coordinates (Angstroms)
 Number     Number       Type             X           Y           Z
 ---------------------------------------------------------------------
      1          8           0        1.719171    0.087051   -0.050455
      2          1           0        0.506199    0.040372   -0.217622
      3          1           0        2.056194   -0.707852    0.369242
      4          8           0       -1.566237   -0.094452    0.020329
      5          1           0       -2.484265   -0.000164   -0.351683
      6          1           0       -1.301601    0.726854    0.441072
 ---------------------------------------------------------------------
 Rotational constants (GHZ):         282.5767036           5.0779520           5.0422246
 Leave Link  202 at Mon Sep 16 13:58:41 2024, MaxMem=   104857600 cpu:               0.0 elap:               0.0
 (Enter /usr/local/g16/l301.exe)
 Standard basis: 6-311G (5D, 7F)
 Ernie: Thresh=  0.10000D-02 Tol=  0.10000D-05 Strict=F.
 There are    38 symmetry adapted cartesian basis functions of A   symmetry.
 There are    38 symmetry adapted basis functions of A   symmetry.
    38 basis functions,    72 primitive gaussians,    38 cartesian basis functions
    10 alpha electrons       10 beta electrons
       nuclear repulsion energy        33.6665699549 Hartrees.
 IExCor=    0 DFT=F Ex=HF Corr=None ExCW=0 ScaHFX=  1.000000
 ScaDFX=  1.000000  1.000000  1.000000  1.000000 ScalE2=  1.000000  1.000000
 IRadAn=      5 IRanWt=     -1 IRanGd=            0 ICorTp=0 IEmpDi=  4
 NAtoms=    6 NActive=    6 NUniq=    6 SFac= 1.00D+00 NAtFMM=   60 NAOKFM=F Big=F
 Integral buffers will be    131072 words long.
 Raffenetti 1 integral format.
 Two-electron integral symmetry is turned on.
 Leave Link  301 at Mon Sep 16 13:58:41 2024, MaxMem=   104857600 cpu:               0.0 elap:               0.0
 (Enter /usr/local/g16/l302.exe)
 NPDir=0 NMtPBC=     1 NCelOv=     1 NCel=       1 NClECP=     1 NCelD=      1
         NCelK=      1 NCelE2=     1 NClLst=     1 CellRange=     0.0.
 One-electron integrals computed using PRISM.
 One-electron integral symmetry used in STVInt
 NBasis=    38 RedAO= T EigKep=  4.62D-02  NBF=    38
 NBsUse=    38 1.00D-06 EigRej= -1.00D+00 NBFU=    38
 Leave Link  302 at Mon Sep 16 13:58:41 2024, MaxMem=   104857600 cpu:               0.0 elap:               0.1
 (Enter /usr/local/g16/l303.exe)
 DipDrv:  MaxL=1.
 Leave Link  303 at Mon Sep 16 13:58:41 2024, MaxMem=   104857600 cpu:               0.0 elap:               0.0
 (Enter /usr/local/g16/l401.exe)
 ExpMin= 1.03D-01 ExpMax= 8.59D+03 ExpMxC= 1.30D+03 IAcc=3 IRadAn=         5 AccDes= 0.00D+00
 Harris functional with IExCor=  205 and IRadAn=       5 diagonalized for initial guess.
 HarFok:  IExCor=  205 AccDes= 0.00D+00 IRadAn=         5 IDoV= 1 UseB2=F ITyADJ=14
 ICtDFT=  3500011 ScaDFX=  1.000000  1.000000  1.000000  1.000000
 FoFCou: FMM=F IPFlag=           0 FMFlag=      100000 FMFlg1=           0
         NFxFlg=           0 DoJE=T BraDBF=F KetDBF=T FulRan=T
         wScrn=  0.000000 ICntrl=       500 IOpCl=  0 I1Cent=   200000004 NGrid=           0
         NMat0=    1 NMatS0=      1 NMatT0=    0 NMatD0=    1 NMtDS0=    0 NMtDT0=    0
 Petite list used in FoFCou.
 Harris En= -152.208090926581    
 JPrj=0 DoOrth=F DoCkMO=F.
 Leave Link  401 at Mon Sep 16 13:58:42 2024, MaxMem=   104857600 cpu:               0.3 elap:               0.3
 (Enter /usr/local/g16/l502.exe)
 Keep R1 ints in memory in canonical form, NReq=1090547.
 FoFCou: FMM=F IPFlag=           0 FMFlag=           0 FMFlg1=           0
         NFxFlg=           0 DoJE=F BraDBF=F KetDBF=F FulRan=T
         wScrn=  0.000000 ICntrl=       600 IOpCl=  0 I1Cent=           0 NGrid=           0
         NMat0=    1 NMatS0=    741 NMatT0=    0 NMatD0=    1 NMtDS0=    0 NMtDT0=    0
 Symmetry not used in FoFCou.
 Two-electron integral symmetry not used.
 Closed shell SCF:
 Using DIIS extrapolation, IDIIS=  1040.
 NGot=   104857600 LenX=   104578941 LenY=   104577056
 Requested convergence on RMS density matrix=1.00D-08 within 128 cycles.
 Requested convergence on MAX density matrix=1.00D-06.
 Requested convergence on             energy=1.00D-06.
 No special actions if energy rises.

 Cycle   1  Pass 1  IDiag  1:
 E= -151.799931006740    
 DIIS: error= 8.53D-02 at cycle   1 NSaved=   1.
 NSaved= 1 IEnMin= 1 EnMin= -151.799931006740     IErMin= 1 ErrMin= 8.53D-02
 ErrMax= 8.53D-02  0.00D+00 EMaxC= 1.00D-01 BMatC= 4.01D-01 BMatP= 4.01D-01
 IDIUse=3 WtCom= 1.47D-01 WtEn= 8.53D-01
 Coeff-Com:  0.100D+01
 Coeff-En:   0.100D+01
 Coeff:      0.100D+01
 Gap=     0.464 Goal=   None    Shift=    0.000
 GapD=    0.464 DampG=2.000 DampE=0.500 DampFc=1.0000 IDamp=-1.
 RMSDP=9.43D-03 MaxDP=8.73D-02              OVMax= 1.45D-01

 Cycle   2  Pass 1  IDiag  1:
 E= -151.910285117287     Delta-E=       -0.110354110547 Rises=F Damp=F
 DIIS: error= 5.76D-02 at cycle   2 NSaved=   2.
 NSaved= 2 IEnMin= 2 EnMin= -151.910285117287     IErMin= 2 ErrMin= 5.76D-02
 ErrMax= 5.76D-02  0.00D+00 EMaxC= 1.00D-01 BMatC= 1.10D-01 BMatP= 4.01D-01
 IDIUse=3 WtCom= 4.24D-01 WtEn= 5.76D-01
 Coeff-Com:  0.319D+00 0.681D+00
 Coeff-En:   0.176D+00 0.824D+00
 Coeff:      0.237D+00 0.763D+00
 Gap=     0.609 Goal=   None    Shift=    0.000
 RMSDP=5.58D-03 MaxDP=6.61D-02 DE=-1.10D-01 OVMax= 6.35D-02

 Cycle   3  Pass 1  IDiag  1:
 E= -151.975415147684     Delta-E=       -0.065130030397 Rises=F Damp=F
 DIIS: error= 1.43D-02 at cycle   3 NSaved=   3.
 NSaved= 3 IEnMin= 3 EnMin= -151.975415147684     IErMin= 3 ErrMin= 1.43D-02
 ErrMax= 1.43D-02  0.00D+00 EMaxC= 1.00D-01 BMatC= 7.79D-03 BMatP= 1.10D-01
 IDIUse=3 WtCom= 8.57D-01 WtEn= 1.43D-01
 Coeff-Com: -0.258D-01 0.183D+00 0.843D+00
 Coeff-En:   0.000D+00 0.000D+00 0.100D+01
 Coeff:     -0.221D-01 0.157D+00 0.865D+00
 Gap=     0.570 Goal=   None    Shift=    0.000
 RMSDP=1.10D-03 MaxDP=1.15D-02 DE=-6.51D-02 OVMax= 1.97D-02

 Cycle   4  Pass 1  IDiag  1:
 E= -151.980513130435     Delta-E=       -0.005097982751 Rises=F Damp=F
 DIIS: error= 2.95D-03 at cycle   4 NSaved=   4.
 NSaved= 4 IEnMin= 4 EnMin= -151.980513130435     IErMin= 4 ErrMin= 2.95D-03
 ErrMax= 2.95D-03  0.00D+00 EMaxC= 1.00D-01 BMatC= 1.31D-04 BMatP= 7.79D-03
 IDIUse=3 WtCom= 9.70D-01 WtEn= 2.95D-02
 Coeff-Com: -0.333D-02-0.172D-01 0.530D-01 0.968D+00
 Coeff-En:   0.000D+00 0.000D+00 0.000D+00 0.100D+01
 Coeff:     -0.323D-02-0.167D-01 0.515D-01 0.968D+00
 Gap=     0.580 Goal=   None    Shift=    0.000
 RMSDP=2.33D-04 MaxDP=3.47D-03 DE=-5.10D-03 OVMax= 3.57D-03

 Cycle   5  Pass 1  IDiag  1:
 E= -151.980627645285     Delta-E=       -0.000114514850 Rises=F Damp=F
 DIIS: error= 7.26D-04 at cycle   5 NSaved=   5.
 NSaved= 5 IEnMin= 5 EnMin= -151.980627645285     IErMin= 5 ErrMin= 7.26D-04
 ErrMax= 7.26D-04  0.00D+00 EMaxC= 1.00D-01 BMatC= 1.24D-05 BMatP= 1.31D-04
 IDIUse=3 WtCom= 9.93D-01 WtEn= 7.26D-03
 Coeff-Com:  0.368D-02-0.377D-01-0.133D+00 0.248D+00 0.919D+00
 Coeff-En:   0.000D+00 0.000D+00 0.000D+00 0.000D+00 0.100D+01
 Coeff:      0.365D-02-0.374D-01-0.132D+00 0.246D+00 0.919D+00
 Gap=     0.580 Goal=   None    Shift=    0.000
 RMSDP=9.72D-05 MaxDP=9.59D-04 DE=-1.15D-04 OVMax= 2.18D-03

 Cycle   6  Pass 1  IDiag  1:
 E= -151.980645776075     Delta-E=       -0.000018130790 Rises=F Damp=F
 DIIS: error= 2.16D-04 at cycle   6 NSaved=   6.
 NSaved= 6 IEnMin= 6 EnMin= -151.980645776075     IErMin= 6 ErrMin= 2.16D-04
 ErrMax= 2.16D-04  0.00D+00 EMaxC= 1.00D-01 BMatC= 6.03D-07 BMatP= 1.24D-05
 IDIUse=3 WtCom= 9.98D-01 WtEn= 2.16D-03
 Coeff-Com: -0.354D-03 0.673D-02 0.201D-01-0.124D+00-0.157D+00 0.125D+01
 Coeff-En:   0.000D+00 0.000D+00 0.000D+00 0.000D+00 0.000D+00 0.100D+01
 Coeff:     -0.353D-03 0.671D-02 0.201D-01-0.124D+00-0.157D+00 0.125D+01
 Gap=     0.581 Goal=   None    Shift=    0.000
 RMSDP=3.32D-05 MaxDP=3.43D-04 DE=-1.81D-05 OVMax= 6.56D-04

 Cycle   7  Pass 1  IDiag  1:
 E= -151.980647036113     Delta-E=       -0.000001260037 Rises=F Damp=F
 DIIS: error= 1.68D-05 at cycle   7 NSaved=   7.
 NSaved= 7 IEnMin= 7 EnMin= -151.980647036113     IErMin= 7 ErrMin= 1.68D-05
 ErrMax= 1.68D-05  0.00D+00 EMaxC= 1.00D-01 BMatC= 1.46D-08 BMatP= 6.03D-07
 IDIUse=1 WtCom= 1.00D+00 WtEn= 0.00D+00
 Coeff-Com: -0.222D-04-0.774D-03-0.195D-02 0.327D-01 0.208D-01-0.413D+00
 Coeff-Com:  0.136D+01
 Coeff:     -0.222D-04-0.774D-03-0.195D-02 0.327D-01 0.208D-01-0.413D+00
 Coeff:      0.136D+01
 Gap=     0.581 Goal=   None    Shift=    0.000
 RMSDP=6.38D-06 MaxDP=4.65D-05 DE=-1.26D-06 OVMax= 1.52D-04

 Cycle   8  Pass 1  IDiag  1:
 E= -151.980647081947     Delta-E=       -0.000000045834 Rises=F Damp=F
 DIIS: error= 6.09D-06 at cycle   8 NSaved=   8.
 NSaved= 8 IEnMin= 8 EnMin= -151.980647081947     IErMin= 8 ErrMin= 6.09D-06
 ErrMax= 6.09D-06  0.00D+00 EMaxC= 1.00D-01 BMatC= 9.22D-10 BMatP= 1.46D-08
 IDIUse=1 WtCom= 1.00D+00 WtEn= 0.00D+00
 Coeff-Com:  0.306D-04 0.537D-04 0.296D-04-0.116D-01-0.252D-02 0.157D+00
 Coeff-Com: -0.713D+00 0.157D+01
 Coeff:      0.306D-04 0.537D-04 0.296D-04-0.116D-01-0.252D-02 0.157D+00
 Coeff:     -0.713D+00 0.157D+01
 Gap=     0.581 Goal=   None    Shift=    0.000
 RMSDP=1.52D-06 MaxDP=9.76D-06 DE=-4.58D-08 OVMax= 3.68D-05

 Cycle   9  Pass 1  IDiag  1:
 E= -151.980647085022     Delta-E=       -0.000000003075 Rises=F Damp=F
 DIIS: error= 6.75D-07 at cycle   9 NSaved=   9.
 NSaved= 9 IEnMin= 9 EnMin= -151.980647085022     IErMin= 9 ErrMin= 6.75D-07
 ErrMax= 6.75D-07  0.00D+00 EMaxC= 1.00D-01 BMatC= 1.63D-11 BMatP= 9.22D-10
 IDIUse=1 WtCom= 1.00D+00 WtEn= 0.00D+00
 Coeff-Com: -0.435D-05 0.613D-05 0.268D-04 0.117D-02-0.529D-04-0.157D-01
 Coeff-Com:  0.913D-01-0.315D+00 0.124D+01
 Coeff:     -0.435D-05 0.613D-05 0.268D-04 0.117D-02-0.529D-04-0.157D-01
 Coeff:      0.913D-01-0.315D+00 0.124D+01
 Gap=     0.581 Goal=   None    Shift=    0.000
 RMSDP=2.02D-07 MaxDP=1.41D-06 DE=-3.08D-09 OVMax= 4.47D-06

 Cycle  10  Pass 1  IDiag  1:
 E= -151.980647085077     Delta-E=       -0.000000000056 Rises=F Damp=F
 DIIS: error= 1.50D-07 at cycle  10 NSaved=  10.
 NSaved=10 IEnMin=10 EnMin= -151.980647085077     IErMin=10 ErrMin= 1.50D-07
 ErrMax= 1.50D-07  0.00D+00 EMaxC= 1.00D-01 BMatC= 9.58D-13 BMatP= 1.63D-11
 IDIUse=1 WtCom= 1.00D+00 WtEn= 0.00D+00
 Coeff-Com:  0.117D-05-0.474D-05-0.132D-04-0.229D-03 0.121D-03 0.278D-02
 Coeff-Com: -0.225D-01 0.105D+00-0.621D+00 0.154D+01
 Coeff:      0.117D-05-0.474D-05-0.132D-04-0.229D-03 0.121D-03 0.278D-02
 Coeff:     -0.225D-01 0.105D+00-0.621D+00 0.154D+01
 Gap=     0.581 Goal=   None    Shift=    0.000
 RMSDP=6.04D-08 MaxDP=3.68D-07 DE=-5.57D-11 OVMax= 1.23D-06

 Cycle  11  Pass 1  IDiag  1:
 E= -151.980647085081     Delta-E=       -0.000000000003 Rises=F Damp=F
 DIIS: error= 1.90D-08 at cycle  11 NSaved=  11.
 NSaved=11 IEnMin=11 EnMin= -151.980647085081     IErMin=11 ErrMin= 1.90D-08
 ErrMax= 1.90D-08  0.00D+00 EMaxC= 1.00D-01 BMatC= 2.72D-14 BMatP= 9.58D-13
 IDIUse=1 WtCom= 1.00D+00 WtEn= 0.00D+00
 Coeff-Com: -0.411D-06 0.189D-05 0.473D-05 0.753D-04-0.508D-04-0.878D-03
 Coeff-Com:  0.809D-02-0.413D-01 0.259D+00-0.730D+00 0.150D+01
 Coeff:     -0.411D-06 0.189D-05 0.473D-05 0.753D-04-0.508D-04-0.878D-03
 Coeff:      0.809D-02-0.413D-01 0.259D+00-0.730D+00 0.150D+01
 Gap=     0.581 Goal=   None    Shift=    0.000
 RMSDP=9.41D-09 MaxDP=5.87D-08 DE=-3.44D-12 OVMax= 1.81D-07

 SCF Done:  E(RHF) =  -151.980647085     A.U. after   11 cycles
            NFock= 11  Conv=0.94D-08     -V/T= 2.0017
 KE= 1.517153508956D+02 PE=-4.284870957167D+02 EE= 9.112452778113D+01
 Leave Link  502 at Mon Sep 16 13:58:42 2024, MaxMem=   104857600 cpu:               0.1 elap:               0.1
 (Enter /usr/local/g16/l601.exe)
 Copying SCF densities to generalized density rwf, IOpCl= 0 IROHF=0.

 **********************************************************************

            Population analysis using the SCF density.

 **********************************************************************

 Orbital symmetries:
       Occupied  (A) (A) (A) (A) (A) (A) (A) (A) (A) (A)
       Virtual   (A) (A) (A) (A) (A) (A) (A) (A) (A) (A) (A) (A)
                 (A) (A) (A) (A) (A) (A) (A) (A) (A) (A) (A) (A)
                 (A) (A) (A) (A)
 The electronic state is 1-A.
 Alpha  occ. eigenvalues --  -20.58740 -20.53943  -1.37670  -1.27984  -0.74522
 Alpha  occ. eigenvalues --   -0.63881  -0.58797  -0.53671  -0.49800  -0.47127
 Alpha virt. eigenvalues --    0.10984   0.17207   0.20301   0.26089   0.46547
 Alpha virt. eigenvalues --    0.54492   0.56830   0.59870   0.97577   1.02353
 Alpha virt. eigenvalues --    1.04862   1.07112   1.13525   1.23924   1.38573
 Alpha virt. eigenvalues --    1.59585   2.40977   2.47908   2.52321   2.67786
 Alpha virt. eigenvalues --    5.28925   5.33432   5.38525   5.41930   5.53257
 Alpha virt. eigenvalues --    5.58121  51.39355  51.45318
          Condensed to atoms (all electrons):
               1          2          3          4          5          6
     1  O    8.356046   0.230314   0.239969  -0.003504   0.000084   0.003293
     2  H    0.230314   0.366701  -0.023031   0.021336  -0.000770  -0.005564
     3  H    0.239969  -0.023031   0.390099  -0.000191   0.000008   0.000117
     4  O   -0.003504   0.021336  -0.000191   8.299990   0.258172   0.242405
     5  H    0.000084  -0.000770   0.000008   0.258172   0.340968  -0.026074
     6  H    0.003293  -0.005564   0.000117   0.242405  -0.026074   0.373068
 Mulliken charges:
               1
     1  O   -0.826203
     2  H    0.411014
     3  H    0.393029
     4  O   -0.818209
     5  H    0.427612
     6  H    0.412755
 Sum of Mulliken charges =   0.00000
 Mulliken charges with hydrogens summed into heavy atoms:
               1
     1  O   -0.022159
     4  O    0.022159
 Electronic spatial extent (au):  <R**2>=            231.0191
 Charge=              0.0000 electrons
 Dipole moment (field-independent basis, Debye):
    X=             -3.5386    Y=              0.2111    Z=              0.7103  Tot=              3.6154
 Quadrupole moment (field-independent basis, Debye-Ang):
   XX=             -9.6744   YY=            -12.2036   ZZ=            -13.5902
   XY=             -6.7499   XZ=              3.0732   YZ=              0.1591
 Traceless Quadrupole moment (field-independent basis, Debye-Ang):
   XX=              2.1483   YY=             -0.3809   ZZ=             -1.7675
   XY=             -6.7499   XZ=              3.0732   YZ=              0.1591
 Octapole moment (field-independent basis, Debye-Ang**2):
  XXX=            -26.9202  YYY=              0.1485  ZZZ=              0.6499  XYY=             -0.1887
  XXY=             -4.7914  XXZ=              0.5302  XZZ=             -1.5100  YZZ=              0.1394
  YYZ=              0.8336  XYZ=             -2.5596
 Hexadecapole moment (field-independent basis, Debye-Ang**3):
 XXXX=           -167.4004 YYYY=            -12.1783 ZZZZ=            -12.0291 XXXY=            -23.9049
 XXXZ=             22.7669 YYYX=             -5.2795 YYYZ=              0.1474 ZZZX=              1.8501
 ZZZY=              0.1123 XXYY=            -36.4981 XXZZ=            -39.8308 YYZZ=             -3.8839
 XXYZ=             -0.7529 YYXZ=              0.6858 ZZXY=             -1.7564
 N-N= 3.366656995488D+01 E-N=-4.284870958061D+02  KE= 1.517153508956D+02
 No NMR shielding tensors so no spin-rotation constants.
 Leave Link  601 at Mon Sep 16 13:58:42 2024, MaxMem=   104857600 cpu:               0.1 elap:               0.1
 (Enter /usr/local/g16/l701.exe)
 ... and contract with generalized density number  0.
 Compute integral first derivatives.
 Leave Link  701 at Mon Sep 16 13:58:42 2024, MaxMem=   104857600 cpu:               0.0 elap:               0.0
 (Enter /usr/local/g16/l702.exe)
 L702 exits ... SP integral derivatives will be done elsewhere.
 Leave Link  702 at Mon Sep 16 13:58:42 2024, MaxMem=   104857600 cpu:               0.0 elap:               0.0
 (Enter /usr/local/g16/l703.exe)
 Integral derivatives from FoFJK, PRISM(SPDF).
 Compute integral first derivatives, UseDBF=F ICtDFT=           0.
 Calling FoFJK, ICntrl=      2127 FMM=F ISym2X=0 I1Cent= 0 IOpClX= 0 NMat=1 NMatS=1 NMatT=0.
 FoFJK:  IHMeth= 1 ICntrl=    2127 DoSepK=F KAlg= 0 I1Cent=           0 FoldK=F
 IRaf=         0 NMat=       1 IRICut=       1 DoRegI=T DoRafI=F ISym2E= 0 IDoP0=0 IntGTp=1.
 FoFCou: FMM=F IPFlag=           0 FMFlag=      100000 FMFlg1=         800
         NFxFlg=           0 DoJE=F BraDBF=F KetDBF=F FulRan=T
         wScrn=  0.000000 ICntrl=      2127 IOpCl=  0 I1Cent=           0 NGrid=           0
         NMat0=    1 NMatS0=      1 NMatT0=    0 NMatD0=    1 NMtDS0=    0 NMtDT0=    0
 Symmetry not used in FoFCou.
 Leave Link  703 at Mon Sep 16 13:58:42 2024, MaxMem=   104857600 cpu:               0.1 elap:               0.1
 (Enter /usr/local/g16/l716.exe)
 Dipole        =-1.39219358D+00 8.30355422D-02 2.79463837D-01
 ***** Axes restored to original set *****
 -------------------------------------------------------------------
 Center     Atomic                   Forces (Hartrees/Bohr)
 Number     Number              X              Y              Z
 -------------------------------------------------------------------
      1        8           0.109982772    0.016853903    0.033033171
      2        1          -0.121219096   -0.028575694   -0.033204308
      3        1           0.012766417    0.009027445    0.004788628
      4        8           0.030320897    0.026741688    0.007047214
      5        1          -0.039107753   -0.017002635   -0.018128207
      6        1           0.007256763   -0.007044707    0.006463502
 -------------------------------------------------------------------
 Cartesian Forces:  Max     0.121219096 RMS     0.043670082
 Leave Link  716 at Mon Sep 16 13:58:42 2024, MaxMem=   104857600 cpu:               0.0 elap:               0.0
 (Enter /usr/local/g16/l103.exe)

 GradGradGradGradGradGradGradGradGradGradGradGradGradGradGradGradGradGrad
 Berny optimization.
 FormGI is forming the generalized inverse of G from B-inverse, IUseBI=4.
 Internal  Forces:  Max     0.130525120 RMS     0.035266853
 Search for a local minimum.
 Step number   1 out of a maximum of   26
 All quantities printed in internal units (Hartrees-Bohrs-Radians)
 RMS Force = .35267D-01 SwitMx=.10000D-02 MixMth= 1
 Mixed Optimization -- RFO/linear search
 Second derivative matrix not updated -- first step.
 The second derivative matrix:
                          R1        R2        R3        R4        R5
           R1           0.22905
           R2           0.00000   0.55473
           R3           0.00000   0.00000   0.03722
           R4           0.00000   0.00000   0.00000   0.02508
           R5           0.00000   0.00000   0.00000   0.00000   0.48575
           R6           0.00000   0.00000   0.00000   0.00000   0.00000
           A1           0.00000   0.00000   0.00000   0.00000   0.00000
           A2           0.00000   0.00000   0.00000   0.00000   0.00000
           A3           0.00000   0.00000   0.00000   0.00000   0.00000
           A4           0.00000   0.00000   0.00000   0.00000   0.00000
           A5           0.00000   0.00000   0.00000   0.00000   0.00000
           A6           0.00000   0.00000   0.00000   0.00000   0.00000
           D1           0.00000   0.00000   0.00000   0.00000   0.00000
           D2           0.00000   0.00000   0.00000   0.00000   0.00000
           D3           0.00000   0.00000   0.00000   0.00000   0.00000
           D4           0.00000   0.00000   0.00000   0.00000   0.00000
                          R6        A1        A2        A3        A4
           R6           0.55473
           A1           0.00000   0.16000
           A2           0.00000   0.00000   0.16000
           A3           0.00000   0.00000   0.00000   0.16000
           A4           0.00000   0.00000   0.00000   0.00000   0.16000
           A5           0.00000   0.00000   0.00000   0.00000   0.00000
           A6           0.00000   0.00000   0.00000   0.00000   0.00000
           D1           0.00000   0.00000   0.00000   0.00000   0.00000
           D2           0.00000   0.00000   0.00000   0.00000   0.00000
           D3           0.00000   0.00000   0.00000   0.00000   0.00000
           D4           0.00000   0.00000   0.00000   0.00000   0.00000
                          A5        A6        D1        D2        D3
           A5           0.00230
           A6           0.00000   0.00230
           D1           0.00000   0.00000   0.00230
           D2           0.00000   0.00000   0.00000   0.00230
           D3           0.00000   0.00000   0.00000   0.00000   0.00230
           D4           0.00000   0.00000   0.00000   0.00000   0.00000
                          D4
           D4           0.01094
 ITU=  0
     Eigenvalues ---    0.00230   0.00230   0.01212   0.02760   0.03662
     Eigenvalues ---    0.08105   0.14719   0.15976   0.22891   0.48575
     Eigenvalues ---    0.52637   0.55426
 RFO step:  Lambda=-6.46613682D-02 EMin= 2.30000000D-03
 Linear search not attempted -- first point.
 Maximum step size (   0.300) exceeded in Quadratic search.
    -- Step size scaled by   0.646
 Iteration  1 RMS(Cart)=  0.08230342 RMS(Int)=  0.02184887
 Iteration  2 RMS(Cart)=  0.02494073 RMS(Int)=  0.00017190
 Iteration  3 RMS(Cart)=  0.00004022 RMS(Int)=  0.00013817
 Iteration  4 RMS(Cart)=  0.00000002 RMS(Int)=  0.00013817
 ITry= 1 IFail=0 DXMaxC= 2.71D-01 DCOld= 1.00D+10 DXMaxT= 3.00D-01 DXLimC= 3.00D+00 Rises=F
 Variable       Old X    -DE/DX   Delta X   Delta X   Delta X     New X
                                 (Linear)    (Quad)   (Total)
    R1        2.31553  -0.13053   0.00000  -0.28708  -0.28706   2.02847
    R2        1.81414  -0.01237   0.00000  -0.01285  -0.01287   1.80127
    R3        3.95029  -0.00431   0.00000  -0.02452  -0.02448   3.92582
    R4        3.86045   0.00266   0.00000   0.01765   0.01763   3.87808
    R5        1.88031  -0.04621   0.00000  -0.05422  -0.05422   1.82609
    R6        1.81414  -0.01124   0.00000  -0.01224  -0.01228   1.80185
    A1        1.95587  -0.01878   0.00000  -0.05503  -0.05497   1.90090
    A2        2.53085  -0.00221   0.00000  -0.01007  -0.01042   2.52043
    A3        2.61799  -0.00210   0.00000  -0.00868  -0.00863   2.60936
    A4        1.91466  -0.00473   0.00000  -0.01159  -0.01175   1.90291
    A5        2.97955  -0.00164   0.00000  -0.00313  -0.00292   2.97663
    A6        2.79095   0.00150   0.00000   0.00748   0.00766   2.79862
    D1        1.83781  -0.00248   0.00000  -0.01130  -0.01145   1.82636
    D2       -2.40791   0.00396   0.00000   0.02067   0.02084  -2.38707
    D3        1.16111  -0.00328   0.00000  -0.01761  -0.01764   1.14347
    D4       -1.59921  -0.00074   0.00000  -0.02410  -0.02397  -1.62318
         Item               Value     Threshold  Converged?
 Maximum Force            0.130525     0.000450     NO 
 RMS     Force            0.035267     0.000300     NO 
 Maximum Displacement     0.270586     0.001800     NO 
 RMS     Displacement     0.106283     0.001200     NO 
 Predicted change in Energy=-3.122986D-02
 Lowest energy point so far.  Saving SCF results.
 GradGradGradGradGradGradGradGradGradGradGradGradGradGradGradGradGradGrad

 Leave Link  103 at Mon Sep 16 13:58:42 2024, MaxMem=   104857600 cpu:               0.0 elap:               0.0
 (Enter /usr/local/g16/l202.exe)
                          Input orientation:                          
 ---------------------------------------------------------------------
 Center     Atomic      Atomic             Coordinates (Angstroms)
 Number     Number       Type             X           Y           Z
 ---------------------------------------------------------------------
      1          8           0       -4.227407    0.740424   -0.246421
      2          1           0       -3.217305    0.863730    0.095223
      3          1           0       -4.407812   -0.190013   -0.347967
      4          8           0       -1.148568    0.843444    0.284232
      5          1           0       -0.350341    1.152478    0.732692
      6          1           0       -1.319298    1.403952   -0.467993
 ---------------------------------------------------------------------
                    Distance matrix (angstroms):
                    1          2          3          4          5
     1  O    0.000000
     2  H    1.073421   0.000000
     3  H    0.953190   1.650485   0.000000
     4  O    3.125933   2.077452   3.477123   0.000000
     5  H    4.019962   2.951139   4.408308   0.966325   0.000000
     6  H    2.991064   2.052190   3.477651   0.953499   1.563253
                    6
     6  H    0.000000
 Stoichiometry    H4O2
 Framework group  C1[X(H4O2)]
 Deg. of freedom    12
 Full point group                 C1      NOp   1
 RotChk:  IX=0 Diff= 1.70D-02
 Largest Abelian subgroup         C1      NOp   1
 Largest concise Abelian subgroup C1      NOp   1
                         Standard orientation:                         
 ---------------------------------------------------------------------
 Center     Atomic      Atomic             Coordinates (Angstroms)
 Number     Number       Type             X           Y           Z
 ---------------------------------------------------------------------
      1          8           0        1.631265    0.087432   -0.049779
      2          1           0        0.571281    0.043037   -0.213165
      3          1           0        1.913168   -0.720244    0.370651
      4          8           0       -1.488717   -0.092785    0.018716
      5          1           0       -2.376103   -0.005725   -0.353777
      6          1           0       -1.248733    0.725764    0.444798
 ---------------------------------------------------------------------
 Rotational constants (GHZ):         280.1293075           5.6237788           5.5793228
 Leave Link  202 at Mon Sep 16 13:58:42 2024, MaxMem=   104857600 cpu:               0.0 elap:               0.0
 (Enter /usr/local/g16/l301.exe)
 Standard basis: 6-311G (5D, 7F)
 Ernie: Thresh=  0.10000D-02 Tol=  0.10000D-05 Strict=F.
 There are    38 symmetry adapted cartesian basis functions of A   symmetry.
 There are    38 symmetry adapted basis functions of A   symmetry.
    38 basis functions,    72 primitive gaussians,    38 cartesian basis functions
    10 alpha electrons       10 beta electrons
       nuclear repulsion energy        35.1325703467 Hartrees.
 IExCor=    0 DFT=F Ex=HF Corr=None ExCW=0 ScaHFX=  1.000000
 ScaDFX=  1.000000  1.000000  1.000000  1.000000 ScalE2=  1.000000  1.000000
 IRadAn=      5 IRanWt=     -1 IRanGd=            0 ICorTp=0 IEmpDi=  4
 NAtoms=    6 NActive=    6 NUniq=    6 SFac= 1.00D+00 NAtFMM=   60 NAOKFM=F Big=F
 Integral buffers will be    131072 words long.
 Raffenetti 1 integral format.
 Two-electron integral symmetry is turned on.
 Leave Link  301 at Mon Sep 16 13:58:42 2024, MaxMem=   104857600 cpu:               0.0 elap:               0.0
 (Enter /usr/local/g16/l302.exe)
 NPDir=0 NMtPBC=     1 NCelOv=     1 NCel=       1 NClECP=     1 NCelD=      1
         NCelK=      1 NCelE2=     1 NClLst=     1 CellRange=     0.0.
 One-electron integrals computed using PRISM.
 One-electron integral symmetry used in STVInt
 NBasis=    38 RedAO= T EigKep=  4.17D-02  NBF=    38
 NBsUse=    38 1.00D-06 EigRej= -1.00D+00 NBFU=    38
 Leave Link  302 at Mon Sep 16 13:58:42 2024, MaxMem=   104857600 cpu:               0.1 elap:               0.1
 (Enter /usr/local/g16/l303.exe)
 DipDrv:  MaxL=1.
 Leave Link  303 at Mon Sep 16 13:58:42 2024, MaxMem=   104857600 cpu:               0.0 elap:               0.0
 (Enter /usr/local/g16/l401.exe)
 Initial guess from the checkpoint file:  "h2o_dimer.chk"
 B after Tr=    -0.000000    0.000000    0.000000
         Rot=    0.999997   -0.002105    0.000643    0.000435 Ang=  -0.26 deg.
 Guess basis will be translated and rotated to current coordinates.
 JPrj=2 DoOrth=T DoCkMO=T.
 Generating alternative initial guess.
 ExpMin= 1.03D-01 ExpMax= 8.59D+03 ExpMxC= 1.30D+03 IAcc=2 IRadAn=         4 AccDes= 0.00D+00
 Harris functional with IExCor=  205 and IRadAn=       4 diagonalized for initial guess.
 HarFok:  IExCor=  205 AccDes= 0.00D+00 IRadAn=         4 IDoV= 1 UseB2=F ITyADJ=14
 ICtDFT=  3500011 ScaDFX=  1.000000  1.000000  1.000000  1.000000
 FoFCou: FMM=F IPFlag=           0 FMFlag=      100000 FMFlg1=           0
         NFxFlg=           0 DoJE=T BraDBF=F KetDBF=T FulRan=T
         wScrn=  0.000000 ICntrl=       500 IOpCl=  0 I1Cent=   200000004 NGrid=           0
         NMat0=    1 NMatS0=      1 NMatT0=    0 NMatD0=    1 NMtDS0=    0 NMtDT0=    0
 Petite list used in FoFCou.
 Harris En= -152.234816404014    
 Leave Link  401 at Mon Sep 16 13:58:42 2024, MaxMem=   104857600 cpu:               0.2 elap:               0.2
 (Enter /usr/local/g16/l502.exe)
 Keep R1 ints in memory in canonical form, NReq=1090648.
 FoFCou: FMM=F IPFlag=           0 FMFlag=           0 FMFlg1=           0
         NFxFlg=           0 DoJE=F BraDBF=F KetDBF=F FulRan=T
         wScrn=  0.000000 ICntrl=       600 IOpCl=  0 I1Cent=           0 NGrid=           0
         NMat0=    1 NMatS0=    741 NMatT0=    0 NMatD0=    1 NMtDS0=    0 NMtDT0=    0
 Symmetry not used in FoFCou.
 Two-electron integral symmetry not used.
 Closed shell SCF:
 Using DIIS extrapolation, IDIIS=  1040.
 NGot=   104857600 LenX=   104578941 LenY=   104577056
 Requested convergence on RMS density matrix=1.00D-08 within 128 cycles.
 Requested convergence on MAX density matrix=1.00D-06.
 Requested convergence on             energy=1.00D-06.
 No special actions if energy rises.

 Cycle   1  Pass 1  IDiag  1:
 E= -152.010878706528    
 DIIS: error= 9.92D-03 at cycle   1 NSaved=   1.
 NSaved= 1 IEnMin= 1 EnMin= -152.010878706528     IErMin= 1 ErrMin= 9.92D-03
 ErrMax= 9.92D-03  0.00D+00 EMaxC= 1.00D-01 BMatC= 6.17D-03 BMatP= 6.17D-03
 IDIUse=3 WtCom= 9.01D-01 WtEn= 9.92D-02
 Coeff-Com:  0.100D+01
 Coeff-En:   0.100D+01
 Coeff:      0.100D+01
 Gap=     0.772 Goal=   None    Shift=    0.000
 GapD=    0.772 DampG=2.000 DampE=1.000 DampFc=2.0000 IDamp=-1.
 RMSDP=1.32D-03 MaxDP=1.13D-02              OVMax= 2.06D-02

 Cycle   2  Pass 1  IDiag  1:
 E= -152.016140679233     Delta-E=       -0.005261972704 Rises=F Damp=F
 DIIS: error= 5.74D-03 at cycle   2 NSaved=   2.
 NSaved= 2 IEnMin= 2 EnMin= -152.016140679233     IErMin= 2 ErrMin= 5.74D-03
 ErrMax= 5.74D-03  0.00D+00 EMaxC= 1.00D-01 BMatC= 6.38D-04 BMatP= 6.17D-03
 IDIUse=3 WtCom= 9.43D-01 WtEn= 5.74D-02
 Coeff-Com:  0.395D-01 0.961D+00
 Coeff-En:   0.000D+00 0.100D+01
 Coeff:      0.372D-01 0.963D+00
 Gap=     0.592 Goal=   None    Shift=    0.000
 RMSDP=5.43D-04 MaxDP=7.59D-03 DE=-5.26D-03 OVMax= 7.38D-03

 Cycle   3  Pass 1  IDiag  1:
 E= -152.016664777404     Delta-E=       -0.000524098171 Rises=F Damp=F
 DIIS: error= 1.94D-03 at cycle   3 NSaved=   3.
 NSaved= 3 IEnMin= 3 EnMin= -152.016664777404     IErMin= 3 ErrMin= 1.94D-03
 ErrMax= 1.94D-03  0.00D+00 EMaxC= 1.00D-01 BMatC= 1.46D-04 BMatP= 6.38D-04
 IDIUse=3 WtCom= 9.81D-01 WtEn= 1.94D-02
 Coeff-Com: -0.767D-01 0.288D+00 0.789D+00
 Coeff-En:   0.000D+00 0.000D+00 0.100D+01
 Coeff:     -0.752D-01 0.282D+00 0.793D+00
 Gap=     0.598 Goal=   None    Shift=    0.000
 RMSDP=2.09D-04 MaxDP=2.16D-03 DE=-5.24D-04 OVMax= 4.83D-03

 Cycle   4  Pass 1  IDiag  1:
 E= -152.016808002073     Delta-E=       -0.000143224668 Rises=F Damp=F
 DIIS: error= 4.53D-04 at cycle   4 NSaved=   4.
 NSaved= 4 IEnMin= 4 EnMin= -152.016808002073     IErMin= 4 ErrMin= 4.53D-04
 ErrMax= 4.53D-04  0.00D+00 EMaxC= 1.00D-01 BMatC= 6.07D-06 BMatP= 1.46D-04
 IDIUse=3 WtCom= 9.95D-01 WtEn= 4.53D-03
 Coeff-Com:  0.253D-01-0.174D+00-0.281D+00 0.143D+01
 Coeff-En:   0.000D+00 0.000D+00 0.000D+00 0.100D+01
 Coeff:      0.252D-01-0.173D+00-0.280D+00 0.143D+01
 Gap=     0.596 Goal=   None    Shift=    0.000
 RMSDP=1.22D-04 MaxDP=1.10D-03 DE=-1.43D-04 OVMax= 2.72D-03

 Cycle   5  Pass 1  IDiag  1:
 E= -152.016825431085     Delta-E=       -0.000017429012 Rises=F Damp=F
 DIIS: error= 5.98D-05 at cycle   5 NSaved=   5.
 NSaved= 5 IEnMin= 5 EnMin= -152.016825431085     IErMin= 5 ErrMin= 5.98D-05
 ErrMax= 5.98D-05  0.00D+00 EMaxC= 1.00D-01 BMatC= 2.18D-07 BMatP= 6.07D-06
 IDIUse=1 WtCom= 1.00D+00 WtEn= 0.00D+00
 Coeff-Com:  0.473D-03 0.322D-02 0.311D-02-0.149D+00 0.114D+01
 Coeff:      0.473D-03 0.322D-02 0.311D-02-0.149D+00 0.114D+01
 Gap=     0.596 Goal=   None    Shift=    0.000
 RMSDP=2.07D-05 MaxDP=1.25D-04 DE=-1.74D-05 OVMax= 4.67D-04

 Cycle   6  Pass 1  IDiag  1:
 E= -152.016825924419     Delta-E=       -0.000000493334 Rises=F Damp=F
 DIIS: error= 3.19D-05 at cycle   6 NSaved=   6.
 NSaved= 6 IEnMin= 6 EnMin= -152.016825924419     IErMin= 6 ErrMin= 3.19D-05
 ErrMax= 3.19D-05  0.00D+00 EMaxC= 1.00D-01 BMatC= 3.99D-08 BMatP= 2.18D-07
 IDIUse=1 WtCom= 1.00D+00 WtEn= 0.00D+00
 Coeff-Com: -0.230D-02 0.173D-01 0.283D-01-0.179D+00 0.333D+00 0.803D+00
 Coeff:     -0.230D-02 0.173D-01 0.283D-01-0.179D+00 0.333D+00 0.803D+00
 Gap=     0.596 Goal=   None    Shift=    0.000
 RMSDP=5.15D-06 MaxDP=4.11D-05 DE=-4.93D-07 OVMax= 7.84D-05

 Cycle   7  Pass 1  IDiag  1:
 E= -152.016825970291     Delta-E=       -0.000000045871 Rises=F Damp=F
 DIIS: error= 6.27D-06 at cycle   7 NSaved=   7.
 NSaved= 7 IEnMin= 7 EnMin= -152.016825970291     IErMin= 7 ErrMin= 6.27D-06
 ErrMax= 6.27D-06  0.00D+00 EMaxC= 1.00D-01 BMatC= 1.77D-09 BMatP= 3.99D-08
 IDIUse=1 WtCom= 1.00D+00 WtEn= 0.00D+00
 Coeff-Com:  0.432D-03-0.368D-02-0.627D-02 0.514D-01-0.176D+00-0.174D+00
 Coeff-Com:  0.131D+01
 Coeff:      0.432D-03-0.368D-02-0.627D-02 0.514D-01-0.176D+00-0.174D+00
 Coeff:      0.131D+01
 Gap=     0.596 Goal=   None    Shift=    0.000
 RMSDP=2.06D-06 MaxDP=1.36D-05 DE=-4.59D-08 OVMax= 3.23D-05

 Cycle   8  Pass 1  IDiag  1:
 E= -152.016825974809     Delta-E=       -0.000000004519 Rises=F Damp=F
 DIIS: error= 1.85D-06 at cycle   8 NSaved=   8.
 NSaved= 8 IEnMin= 8 EnMin= -152.016825974809     IErMin= 8 ErrMin= 1.85D-06
 ErrMax= 1.85D-06  0.00D+00 EMaxC= 1.00D-01 BMatC= 6.39D-11 BMatP= 1.77D-09
 IDIUse=1 WtCom= 1.00D+00 WtEn= 0.00D+00
 Coeff-Com: -0.875D-04 0.886D-03 0.161D-02-0.154D-01 0.648D-01 0.465D-01
 Coeff-Com: -0.573D+00 0.147D+01
 Coeff:     -0.875D-04 0.886D-03 0.161D-02-0.154D-01 0.648D-01 0.465D-01
 Coeff:     -0.573D+00 0.147D+01
 Gap=     0.596 Goal=   None    Shift=    0.000
 RMSDP=4.18D-07 MaxDP=2.82D-06 DE=-4.52D-09 OVMax= 8.24D-06

 Cycle   9  Pass 1  IDiag  1:
 E= -152.016825975014     Delta-E=       -0.000000000205 Rises=F Damp=F
 DIIS: error= 3.78D-07 at cycle   9 NSaved=   9.
 NSaved= 9 IEnMin= 9 EnMin= -152.016825975014     IErMin= 9 ErrMin= 3.78D-07
 ErrMax= 3.78D-07  0.00D+00 EMaxC= 1.00D-01 BMatC= 1.82D-12 BMatP= 6.39D-11
 IDIUse=1 WtCom= 1.00D+00 WtEn= 0.00D+00
 Coeff-Com:  0.228D-04-0.231D-03-0.430D-03 0.410D-02-0.176D-01-0.119D-01
 Coeff-Com:  0.163D+00-0.530D+00 0.139D+01
 Coeff:      0.228D-04-0.231D-03-0.430D-03 0.410D-02-0.176D-01-0.119D-01
 Coeff:      0.163D+00-0.530D+00 0.139D+01
 Gap=     0.596 Goal=   None    Shift=    0.000
 RMSDP=7.84D-08 MaxDP=5.80D-07 DE=-2.05D-10 OVMax= 1.81D-06

 Cycle  10  Pass 1  IDiag  1:
 E= -152.016825975020     Delta-E=       -0.000000000006 Rises=F Damp=F
 DIIS: error= 7.49D-08 at cycle  10 NSaved=  10.
 NSaved=10 IEnMin=10 EnMin= -152.016825975020     IErMin=10 ErrMin= 7.49D-08
 ErrMax= 7.49D-08  0.00D+00 EMaxC= 1.00D-01 BMatC= 8.70D-14 BMatP= 1.82D-12
 IDIUse=1 WtCom= 1.00D+00 WtEn= 0.00D+00
 Coeff-Com: -0.450D-05 0.453D-04 0.907D-04-0.839D-03 0.363D-02 0.230D-02
 Coeff-Com: -0.355D-01 0.135D+00-0.525D+00 0.142D+01
 Coeff:     -0.450D-05 0.453D-04 0.907D-04-0.839D-03 0.363D-02 0.230D-02
 Coeff:     -0.355D-01 0.135D+00-0.525D+00 0.142D+01
 Gap=     0.596 Goal=   None    Shift=    0.000
 RMSDP=1.64D-08 MaxDP=1.36D-07 DE=-6.25D-12 OVMax= 4.35D-07

 Cycle  11  Pass 1  IDiag  1:
 E= -152.016825975021     Delta-E=       -0.000000000001 Rises=F Damp=F
 DIIS: error= 1.19D-08 at cycle  11 NSaved=  11.
 NSaved=11 IEnMin=11 EnMin= -152.016825975021     IErMin=11 ErrMin= 1.19D-08
 ErrMax= 1.19D-08  0.00D+00 EMaxC= 1.00D-01 BMatC= 4.05D-15 BMatP= 8.70D-14
 IDIUse=1 WtCom= 1.00D+00 WtEn= 0.00D+00
 Coeff-Com:  0.128D-05-0.131D-04-0.284D-04 0.257D-03-0.112D-02-0.686D-03
 Coeff-Com:  0.112D-01-0.447D-01 0.192D+00-0.669D+00 0.151D+01
 Coeff:      0.128D-05-0.131D-04-0.284D-04 0.257D-03-0.112D-02-0.686D-03
 Coeff:      0.112D-01-0.447D-01 0.192D+00-0.669D+00 0.151D+01
 Gap=     0.596 Goal=   None    Shift=    0.000
 RMSDP=3.90D-09 MaxDP=2.89D-08 DE=-5.68D-13 OVMax= 9.22D-08

 SCF Done:  E(RHF) =  -152.016825975     A.U. after   11 cycles
            NFock= 11  Conv=0.39D-08     -V/T= 2.0004
 KE= 1.519556989829D+02 PE=-4.315508361970D+02 EE= 9.244574089231D+01
 Leave Link  502 at Mon Sep 16 13:58:42 2024, MaxMem=   104857600 cpu:               0.1 elap:               0.1
 (Enter /usr/local/g16/l701.exe)
 ... and contract with generalized density number  0.
 Compute integral first derivatives.
 Leave Link  701 at Mon Sep 16 13:58:42 2024, MaxMem=   104857600 cpu:               0.0 elap:               0.0
 (Enter /usr/local/g16/l702.exe)
 L702 exits ... SP integral derivatives will be done elsewhere.
 Leave Link  702 at Mon Sep 16 13:58:42 2024, MaxMem=   104857600 cpu:               0.0 elap:               0.0
 (Enter /usr/local/g16/l703.exe)
 Integral derivatives from FoFJK, PRISM(SPDF).
 Compute integral first derivatives, UseDBF=F ICtDFT=           0.
 Calling FoFJK, ICntrl=      2127 FMM=F ISym2X=0 I1Cent= 0 IOpClX= 0 NMat=1 NMatS=1 NMatT=0.
 FoFJK:  IHMeth= 1 ICntrl=    2127 DoSepK=F KAlg= 0 I1Cent=           0 FoldK=F
 IRaf=         0 NMat=       1 IRICut=       1 DoRegI=T DoRafI=F ISym2E= 0 IDoP0=0 IntGTp=1.
 FoFCou: FMM=F IPFlag=           0 FMFlag=      100000 FMFlg1=         800
         NFxFlg=           0 DoJE=F BraDBF=F KetDBF=F FulRan=T
         wScrn=  0.000000 ICntrl=      2127 IOpCl=  0 I1Cent=           0 NGrid=           0
         NMat0=    1 NMatS0=      1 NMatT0=    0 NMatD0=    1 NMtDS0=    0 NMtDT0=    0
 Symmetry not used in FoFCou.
 Leave Link  703 at Mon Sep 16 13:58:42 2024, MaxMem=   104857600 cpu:               0.1 elap:               0.1
 (Enter /usr/local/g16/l716.exe)
 Dipole        =-1.37301523D+00 5.85193553D-02 2.78239863D-01
 ***** Axes restored to original set *****
 -------------------------------------------------------------------
 Center     Atomic                   Forces (Hartrees/Bohr)
 Number     Number              X              Y              Z
 -------------------------------------------------------------------
      1        8           0.085136592    0.007296124    0.025715807
      2        1          -0.086487504   -0.015258458   -0.023018505
      3        1           0.002069162    0.005640093    0.001357100
      4        8           0.014440117    0.017197259    0.000281602
      5        1          -0.017949810   -0.010222766   -0.005212123
      6        1           0.002791442   -0.004652253    0.000876119
 -------------------------------------------------------------------
 Cartesian Forces:  Max     0.086487504 RMS     0.030940698
 Leave Link  716 at Mon Sep 16 13:58:42 2024, MaxMem=   104857600 cpu:               0.0 elap:               0.0
 (Enter /usr/local/g16/l103.exe)

 GradGradGradGradGradGradGradGradGradGradGradGradGradGradGradGradGradGrad
 Berny optimization.
 Using GEDIIS/GDIIS optimizer.
 FormGI is forming the generalized inverse of G from B-inverse, IUseBI=4.
 Internal  Forces:  Max     0.092103603 RMS     0.023723470
 Search for a local minimum.
 Step number   2 out of a maximum of   26
 All quantities printed in internal units (Hartrees-Bohrs-Radians)
 RMS Force = .23723D-01 SwitMx=.10000D-02 MixMth= 1
 Mixed Optimization -- RFO/linear search
 Update second derivatives using D2CorX and points    1    2
 DE= -3.62D-02 DEPred=-3.12D-02 R= 1.16D+00
 TightC=F SS=  1.41D+00  RLast= 3.02D-01 DXNew= 5.0454D-01 9.0713D-01
 Trust test= 1.16D+00 RLast= 3.02D-01 DXMaxT set to 5.05D-01
 The second derivative matrix:
                          R1        R2        R3        R4        R5
           R1           0.13158
           R2          -0.00462   0.55521
           R3           0.00360   0.00075   0.03756
           R4          -0.00311  -0.00059  -0.00025   0.02526
           R5          -0.01009   0.00289   0.00317  -0.00245   0.50107
           R6          -0.00172   0.00089   0.00087  -0.00067   0.00456
           A1           0.02126   0.00500   0.00253  -0.00184   0.02159
           A2          -0.00521  -0.00057  -0.00007   0.00004  -0.00209
           A3          -0.00525  -0.00062  -0.00012   0.00007  -0.00236
           A4           0.00533   0.00120   0.00059  -0.00043   0.00514
           A5           0.00163   0.00027   0.00010  -0.00007   0.00110
           A6          -0.00235  -0.00039  -0.00014   0.00010  -0.00159
           D1           0.00091   0.00015   0.00006  -0.00004   0.00063
           D2          -0.00171  -0.00029  -0.00011   0.00008  -0.00118
           D3           0.00199   0.00033   0.00012  -0.00009   0.00136
           D4          -0.00424  -0.00065  -0.00022   0.00015  -0.00262
                          R6        A1        A2        A3        A4
           R6           0.55608
           A1           0.00599   0.17834
           A2          -0.00054  -0.00070   0.15987
           A3          -0.00062  -0.00100  -0.00011   0.15992
           A4           0.00142   0.00427  -0.00015  -0.00022   0.16099
           A5           0.00030   0.00074  -0.00000  -0.00001   0.00017
           A6          -0.00043  -0.00108   0.00000   0.00002  -0.00025
           D1           0.00017   0.00044  -0.00000  -0.00001   0.00010
           D2          -0.00032  -0.00082   0.00000   0.00002  -0.00019
           D3           0.00037   0.00094  -0.00000  -0.00002   0.00022
           D4          -0.00071  -0.00166  -0.00002   0.00001  -0.00038
                          A5        A6        D1        D2        D3
           A5           0.00233
           A6          -0.00004   0.00235
           D1           0.00002  -0.00002   0.00231
           D2          -0.00003   0.00004  -0.00002   0.00233
           D3           0.00003  -0.00005   0.00002  -0.00004   0.00234
           D4          -0.00005   0.00008  -0.00003   0.00006  -0.00007
                          D4
           D4           0.01105
 ITU=  1  0
 Use linear search instead of GDIIS.
     Eigenvalues ---    0.00230   0.00230   0.01221   0.02933   0.03886
     Eigenvalues ---    0.08203   0.12219   0.14896   0.18599   0.50135
     Eigenvalues ---    0.52948   0.55491
 RFO step:  Lambda=-5.26384915D-03 EMin= 2.29989160D-03
 Quartic linear search produced a step of  0.88473.
 Iteration  1 RMS(Cart)=  0.05628519 RMS(Int)=  0.03495772
 Iteration  2 RMS(Cart)=  0.03989459 RMS(Int)=  0.00089731
 Iteration  3 RMS(Cart)=  0.00007053 RMS(Int)=  0.00088545
 Iteration  4 RMS(Cart)=  0.00000037 RMS(Int)=  0.00088545
 ITry= 1 IFail=0 DXMaxC= 2.43D-01 DCOld= 1.00D+10 DXMaxT= 5.05D-01 DXLimC= 3.00D+00 Rises=F
 Variable       Old X    -DE/DX   Delta X   Delta X   Delta X     New X
                                 (Linear)    (Quad)   (Total)
    R1        2.02847  -0.09210  -0.25397  -0.08204  -0.33599   1.69248
    R2        1.80127  -0.00608  -0.01139   0.00078  -0.01062   1.79065
    R3        3.92582  -0.00201  -0.02165   0.08512   0.06391   3.98972
    R4        3.87808   0.00106   0.01560  -0.08754  -0.07265   3.80543
    R5        1.82609  -0.02052  -0.04797   0.01453  -0.03344   1.79265
    R6        1.80185  -0.00427  -0.01087   0.00442  -0.00594   1.79592
    A1        1.90090  -0.00143  -0.04864   0.13461   0.08627   1.98716
    A2        2.52043  -0.00221  -0.00922  -0.01125  -0.01923   2.50120
    A3        2.60936  -0.00243  -0.00763  -0.00594  -0.01312   2.59624
    A4        1.90291  -0.00074  -0.01040   0.03096   0.01877   1.92167
    A5        2.97663  -0.00105  -0.00258  -0.04354  -0.04764   2.92900
    A6        2.79862   0.00064   0.00678  -0.05387  -0.04656   2.75205
    D1        1.82636  -0.00213  -0.01013  -0.00258  -0.01333   1.81303
    D2       -2.38707   0.00330   0.01844  -0.04641  -0.02677  -2.41384
    D3        1.14347  -0.00252  -0.01560   0.11949   0.10258   1.24605
    D4       -1.62318  -0.00195  -0.02121   0.13762   0.11700  -1.50618
         Item               Value     Threshold  Converged?
 Maximum Force            0.092104     0.000450     NO 
 RMS     Force            0.023723     0.000300     NO 
 Maximum Displacement     0.242604     0.001800     NO 
 RMS     Displacement     0.090325     0.001200     NO 
 Predicted change in Energy=-2.317577D-02
 Lowest energy point so far.  Saving SCF results.
 GradGradGradGradGradGradGradGradGradGradGradGradGradGradGradGradGradGrad

 Leave Link  103 at Mon Sep 16 13:58:42 2024, MaxMem=   104857600 cpu:               0.0 elap:               0.0
 (Enter /usr/local/g16/l202.exe)
                          Input orientation:                          
 ---------------------------------------------------------------------
 Center     Atomic      Atomic             Coordinates (Angstroms)
 Number     Number       Type             X           Y           Z
 ---------------------------------------------------------------------
      1          8           0       -4.099027    0.748011   -0.244015
      2          1           0       -3.273718    0.880108    0.077786
      3          1           0       -4.336624   -0.165595   -0.326234
      4          8           0       -1.172869    0.821654    0.278989
      5          1           0       -0.390386    1.139072    0.711272
      6          1           0       -1.398107    1.390766   -0.448032
 ---------------------------------------------------------------------
                    Distance matrix (angstroms):
                    1          2          3          4          5
     1  O    0.000000
     2  H    0.895623   0.000000
     3  H    0.947569   1.544828   0.000000
     4  O    2.973442   2.111271   3.369021   0.000000
     5  H    3.849613   2.963439   4.283849   0.948631   0.000000
     6  H    2.783833   2.013746   3.327458   0.950358   1.556546
                    6
     6  H    0.000000
 Stoichiometry    H4O2
 Framework group  C1[X(H4O2)]
 Deg. of freedom    12
 Full point group                 C1      NOp   1
 RotChk:  IX=3 Diff= 3.04D-02
 Largest Abelian subgroup         C1      NOp   1
 Largest concise Abelian subgroup C1      NOp   1
                         Standard orientation:                         
 ---------------------------------------------------------------------
 Center     Atomic      Atomic             Coordinates (Angstroms)
 Number     Number       Type             X           Y           Z
 ---------------------------------------------------------------------
      1          8           0        1.539762    0.085954   -0.043090
      2          1           0        0.662930    0.070993   -0.224975
      3          1           0        1.868595   -0.722783    0.325286
      4          8           0       -1.427451   -0.095806    0.019869
      5          1           0       -2.297838    0.019012   -0.339498
      6          1           0       -1.132173    0.711594    0.424955
 ---------------------------------------------------------------------
 Rotational constants (GHZ):         291.4782797           6.1923326           6.1346372
 Leave Link  202 at Mon Sep 16 13:58:43 2024, MaxMem=   104857600 cpu:               0.0 elap:               0.0
 (Enter /usr/local/g16/l301.exe)
 Standard basis: 6-311G (5D, 7F)
 Ernie: Thresh=  0.10000D-02 Tol=  0.10000D-05 Strict=F.
 There are    38 symmetry adapted cartesian basis functions of A   symmetry.
 There are    38 symmetry adapted basis functions of A   symmetry.
    38 basis functions,    72 primitive gaussians,    38 cartesian basis functions
    10 alpha electrons       10 beta electrons
       nuclear repulsion energy        36.7901714283 Hartrees.
 IExCor=    0 DFT=F Ex=HF Corr=None ExCW=0 ScaHFX=  1.000000
 ScaDFX=  1.000000  1.000000  1.000000  1.000000 ScalE2=  1.000000  1.000000
 IRadAn=      5 IRanWt=     -1 IRanGd=            0 ICorTp=0 IEmpDi=  4
 NAtoms=    6 NActive=    6 NUniq=    6 SFac= 1.00D+00 NAtFMM=   60 NAOKFM=F Big=F
 Integral buffers will be    131072 words long.
 Raffenetti 1 integral format.
 Two-electron integral symmetry is turned on.
 Leave Link  301 at Mon Sep 16 13:58:43 2024, MaxMem=   104857600 cpu:               0.0 elap:               0.0
 (Enter /usr/local/g16/l302.exe)
 NPDir=0 NMtPBC=     1 NCelOv=     1 NCel=       1 NClECP=     1 NCelD=      1
         NCelK=      1 NCelE2=     1 NClLst=     1 CellRange=     0.0.
 One-electron integrals computed using PRISM.
 One-electron integral symmetry used in STVInt
 NBasis=    38 RedAO= T EigKep=  3.43D-02  NBF=    38
 NBsUse=    38 1.00D-06 EigRej= -1.00D+00 NBFU=    38
 Leave Link  302 at Mon Sep 16 13:58:43 2024, MaxMem=   104857600 cpu:               0.0 elap:               0.1
 (Enter /usr/local/g16/l303.exe)
 DipDrv:  MaxL=1.
 Leave Link  303 at Mon Sep 16 13:58:43 2024, MaxMem=   104857600 cpu:               0.0 elap:               0.0
 (Enter /usr/local/g16/l401.exe)
 Initial guess from the checkpoint file:  "h2o_dimer.chk"
 B after Tr=    -0.000000    0.000000    0.000000
         Rot=    0.999916   -0.012975   -0.000648    0.000244 Ang=  -1.49 deg.
 Guess basis will be translated and rotated to current coordinates.
 JPrj=2 DoOrth=T DoCkMO=T.
 Generating alternative initial guess.
 ExpMin= 1.03D-01 ExpMax= 8.59D+03 ExpMxC= 1.30D+03 IAcc=2 IRadAn=         4 AccDes= 0.00D+00
 Harris functional with IExCor=  205 and IRadAn=       4 diagonalized for initial guess.
 HarFok:  IExCor=  205 AccDes= 0.00D+00 IRadAn=         4 IDoV= 1 UseB2=F ITyADJ=14
 ICtDFT=  3500011 ScaDFX=  1.000000  1.000000  1.000000  1.000000
 FoFCou: FMM=F IPFlag=           0 FMFlag=      100000 FMFlg1=           0
         NFxFlg=           0 DoJE=T BraDBF=F KetDBF=T FulRan=T
         wScrn=  0.000000 ICntrl=       500 IOpCl=  0 I1Cent=   200000004 NGrid=           0
         NMat0=    1 NMatS0=      1 NMatT0=    0 NMatD0=    1 NMtDS0=    0 NMtDT0=    0
 Petite list used in FoFCou.
 Harris En= -152.241839255236    
 Leave Link  401 at Mon Sep 16 13:58:43 2024, MaxMem=   104857600 cpu:               0.2 elap:               0.2
 (Enter /usr/local/g16/l502.exe)
 Keep R1 ints in memory in canonical form, NReq=1090760.
 FoFCou: FMM=F IPFlag=           0 FMFlag=           0 FMFlg1=           0
         NFxFlg=           0 DoJE=F BraDBF=F KetDBF=F FulRan=T
         wScrn=  0.000000 ICntrl=       600 IOpCl=  0 I1Cent=           0 NGrid=           0
         NMat0=    1 NMatS0=    741 NMatT0=    0 NMatD0=    1 NMtDS0=    0 NMtDT0=    0
 Symmetry not used in FoFCou.
 Two-electron integral symmetry not used.
 Closed shell SCF:
 Using DIIS extrapolation, IDIIS=  1040.
 NGot=   104857600 LenX=   104578941 LenY=   104577056
 Requested convergence on RMS density matrix=1.00D-08 within 128 cycles.
 Requested convergence on MAX density matrix=1.00D-06.
 Requested convergence on             energy=1.00D-06.
 No special actions if energy rises.

 Cycle   1  Pass 1  IDiag  1:
 E= -152.012433783887    
 DIIS: error= 1.74D-02 at cycle   1 NSaved=   1.
 NSaved= 1 IEnMin= 1 EnMin= -152.012433783887     IErMin= 1 ErrMin= 1.74D-02
 ErrMax= 1.74D-02  0.00D+00 EMaxC= 1.00D-01 BMatC= 1.49D-02 BMatP= 1.49D-02
 IDIUse=3 WtCom= 8.26D-01 WtEn= 1.74D-01
 Coeff-Com:  0.100D+01
 Coeff-En:   0.100D+01
 Coeff:      0.100D+01
 Recover alternate guess density for next cycle.
 RMSDP=6.75D-03 MaxDP=5.32D-02              OVMax= 0.00D+00

 Cycle   2  Pass 1  IDiag  1:
 E= -151.837929983699     Delta-E=        0.174503800188 Rises=F Damp=F
 Switch densities from cycles 1 and 2 for lowest energy.
 DIIS: error= 1.04D-01 at cycle   2 NSaved=   2.
 NSaved= 2 IEnMin= 1 EnMin= -152.012433783887     IErMin= 1 ErrMin= 1.74D-02
 ErrMax= 1.04D-01  0.00D+00 EMaxC= 1.00D+00 BMatC= 4.29D-01 BMatP= 1.49D-02
 IDIUse=1 WtCom= 1.00D+00 WtEn= 0.00D+00
 Coeff-Com:  0.934D+00 0.660D-01
 Coeff:      0.934D+00 0.660D-01
 Gap=     0.663 Goal=   None    Shift=    0.000
 RMSDP=2.14D-03 MaxDP=1.82D-02 DE= 1.75D-01 OVMax= 9.46D-02

 Cycle   3  Pass 1  IDiag  1:
 E= -152.025307379874     Delta-E=       -0.187377396176 Rises=F Damp=F
 DIIS: error= 5.28D-03 at cycle   3 NSaved=   3.
 NSaved= 3 IEnMin= 3 EnMin= -152.025307379874     IErMin= 3 ErrMin= 5.28D-03
 ErrMax= 5.28D-03  0.00D+00 EMaxC= 1.00D+00 BMatC= 8.20D-04 BMatP= 1.49D-02
 IDIUse=1 WtCom= 1.00D+00 WtEn= 0.00D+00
 Coeff-Com: -0.489D-01-0.237D-02 0.105D+01
 Coeff:     -0.489D-01-0.237D-02 0.105D+01
 Gap=     0.607 Goal=   None    Shift=    0.000
 RMSDP=6.95D-04 MaxDP=6.73D-03 DE=-1.87D-01 OVMax= 8.21D-03

 Cycle   4  Pass 1  IDiag  1:
 E= -152.026121593426     Delta-E=       -0.000814213551 Rises=F Damp=F
 DIIS: error= 2.39D-03 at cycle   4 NSaved=   4.
 NSaved= 4 IEnMin= 4 EnMin= -152.026121593426     IErMin= 4 ErrMin= 2.39D-03
 ErrMax= 2.39D-03  0.00D+00 EMaxC= 1.00D+00 BMatC= 2.06D-04 BMatP= 8.20D-04
 IDIUse=1 WtCom= 1.00D+00 WtEn= 0.00D+00
 Coeff-Com: -0.657D-01-0.278D-02 0.319D+00 0.749D+00
 Coeff:     -0.657D-01-0.278D-02 0.319D+00 0.749D+00
 Gap=     0.613 Goal=   None    Shift=    0.000
 RMSDP=2.39D-04 MaxDP=2.28D-03 DE=-8.14D-04 OVMax= 3.49D-03

 Cycle   5  Pass 1  IDiag  1:
 E= -152.026297919130     Delta-E=       -0.000176325704 Rises=F Damp=F
 DIIS: error= 4.18D-04 at cycle   5 NSaved=   5.
 NSaved= 5 IEnMin= 5 EnMin= -152.026297919130     IErMin= 5 ErrMin= 4.18D-04
 ErrMax= 4.18D-04  0.00D+00 EMaxC= 1.00D+00 BMatC= 8.54D-06 BMatP= 2.06D-04
 IDIUse=1 WtCom= 1.00D+00 WtEn= 0.00D+00
 Coeff-Com:  0.152D-01 0.178D-02-0.149D+00-0.157D+00 0.129D+01
 Coeff:      0.152D-01 0.178D-02-0.149D+00-0.157D+00 0.129D+01
 Gap=     0.612 Goal=   None    Shift=    0.000
 RMSDP=1.35D-04 MaxDP=1.11D-03 DE=-1.76D-04 OVMax= 2.03D-03

 Cycle   6  Pass 1  IDiag  1:
 E= -152.026319003362     Delta-E=       -0.000021084232 Rises=F Damp=F
 DIIS: error= 1.07D-04 at cycle   6 NSaved=   6.
 NSaved= 6 IEnMin= 6 EnMin= -152.026319003362     IErMin= 6 ErrMin= 1.07D-04
 ErrMax= 1.07D-04  0.00D+00 EMaxC= 1.00D+00 BMatC= 3.10D-07 BMatP= 8.54D-06
 IDIUse=1 WtCom= 1.00D+00 WtEn= 0.00D+00
 Coeff-Com: -0.387D-03-0.569D-03 0.150D-01 0.499D-02-0.252D+00 0.123D+01
 Coeff:     -0.387D-03-0.569D-03 0.150D-01 0.499D-02-0.252D+00 0.123D+01
 Gap=     0.612 Goal=   None    Shift=    0.000
 RMSDP=2.76D-05 MaxDP=1.60D-04 DE=-2.11D-05 OVMax= 4.99D-04

 Cycle   7  Pass 1  IDiag  1:
 E= -152.026319815082     Delta-E=       -0.000000811720 Rises=F Damp=F
 DIIS: error= 2.24D-05 at cycle   7 NSaved=   7.
 NSaved= 7 IEnMin= 7 EnMin= -152.026319815082     IErMin= 7 ErrMin= 2.24D-05
 ErrMax= 2.24D-05  0.00D+00 EMaxC= 1.00D+00 BMatC= 1.86D-08 BMatP= 3.10D-07
 IDIUse=1 WtCom= 1.00D+00 WtEn= 0.00D+00
 Coeff-Com: -0.813D-03 0.452D-04 0.675D-02 0.777D-02-0.512D-01-0.836D-01
 Coeff-Com:  0.112D+01
 Coeff:     -0.813D-03 0.452D-04 0.675D-02 0.777D-02-0.512D-01-0.836D-01
 Coeff:      0.112D+01
 Gap=     0.612 Goal=   None    Shift=    0.000
 RMSDP=6.15D-06 MaxDP=4.63D-05 DE=-8.12D-07 OVMax= 1.20D-04

 Cycle   8  Pass 1  IDiag  1:
 E= -152.026319859925     Delta-E=       -0.000000044843 Rises=F Damp=F
 DIIS: error= 4.89D-06 at cycle   8 NSaved=   8.
 NSaved= 8 IEnMin= 8 EnMin= -152.026319859925     IErMin= 8 ErrMin= 4.89D-06
 ErrMax= 4.89D-06  0.00D+00 EMaxC= 1.00D+00 BMatC= 1.18D-09 BMatP= 1.86D-08
 IDIUse=1 WtCom= 1.00D+00 WtEn= 0.00D+00
 Coeff-Com:  0.207D-03 0.523D-05-0.222D-02-0.205D-02 0.263D-01-0.558D-01
 Coeff-Com: -0.276D+00 0.131D+01
 Coeff:      0.207D-03 0.523D-05-0.222D-02-0.205D-02 0.263D-01-0.558D-01
 Coeff:     -0.276D+00 0.131D+01
 Gap=     0.612 Goal=   None    Shift=    0.000
 RMSDP=1.83D-06 MaxDP=1.54D-05 DE=-4.48D-08 OVMax= 3.34D-05

 Cycle   9  Pass 1  IDiag  1:
 E= -152.026319863455     Delta-E=       -0.000000003530 Rises=F Damp=F
 DIIS: error= 1.28D-06 at cycle   9 NSaved=   9.
 NSaved= 9 IEnMin= 9 EnMin= -152.026319863455     IErMin= 9 ErrMin= 1.28D-06
 ErrMax= 1.28D-06  0.00D+00 EMaxC= 1.00D+00 BMatC= 5.02D-11 BMatP= 1.18D-09
 IDIUse=1 WtCom= 1.00D+00 WtEn= 0.00D+00
 Coeff-Com: -0.387D-04-0.246D-05 0.525D-03 0.441D-03-0.807D-02 0.262D-01
 Coeff-Com:  0.675D-01-0.538D+00 0.145D+01
 Coeff:     -0.387D-04-0.246D-05 0.525D-03 0.441D-03-0.807D-02 0.262D-01
 Coeff:      0.675D-01-0.538D+00 0.145D+01
 Gap=     0.612 Goal=   None    Shift=    0.000
 RMSDP=4.59D-07 MaxDP=3.18D-06 DE=-3.53D-09 OVMax= 6.95D-06

 Cycle  10  Pass 1  IDiag  1:
 E= -152.026319863615     Delta-E=       -0.000000000160 Rises=F Damp=F
 DIIS: error= 2.01D-07 at cycle  10 NSaved=  10.
 NSaved=10 IEnMin=10 EnMin= -152.026319863615     IErMin=10 ErrMin= 2.01D-07
 ErrMax= 2.01D-07  0.00D+00 EMaxC= 1.00D+00 BMatC= 1.38D-12 BMatP= 5.02D-11
 IDIUse=1 WtCom= 1.00D+00 WtEn= 0.00D+00
 Coeff-Com:  0.100D-04 0.748D-06-0.140D-03-0.124D-03 0.226D-02-0.784D-02
 Coeff-Com: -0.178D-01 0.160D+00-0.539D+00 0.140D+01
 Coeff:      0.100D-04 0.748D-06-0.140D-03-0.124D-03 0.226D-02-0.784D-02
 Coeff:     -0.178D-01 0.160D+00-0.539D+00 0.140D+01
 Gap=     0.612 Goal=   None    Shift=    0.000
 RMSDP=7.01D-08 MaxDP=4.51D-07 DE=-1.60D-10 OVMax= 1.10D-06

 Cycle  11  Pass 1  IDiag  1:
 E= -152.026319863619     Delta-E=       -0.000000000004 Rises=F Damp=F
 DIIS: error= 2.66D-08 at cycle  11 NSaved=  11.
 NSaved=11 IEnMin=11 EnMin= -152.026319863619     IErMin=11 ErrMin= 2.66D-08
 ErrMax= 2.66D-08  0.00D+00 EMaxC= 1.00D+00 BMatC= 3.28D-14 BMatP= 1.38D-12
 IDIUse=1 WtCom= 1.00D+00 WtEn= 0.00D+00
 Coeff-Com: -0.176D-05-0.141D-06 0.236D-04 0.236D-04-0.385D-03 0.134D-02
 Coeff-Com:  0.297D-02-0.279D-01 0.106D+00-0.384D+00 0.130D+01
 Coeff:     -0.176D-05-0.141D-06 0.236D-04 0.236D-04-0.385D-03 0.134D-02
 Coeff:      0.297D-02-0.279D-01 0.106D+00-0.384D+00 0.130D+01
 Gap=     0.612 Goal=   None    Shift=    0.000
 RMSDP=9.20D-09 MaxDP=5.54D-08 DE=-4.09D-12 OVMax= 1.31D-07

 SCF Done:  E(RHF) =  -152.026319864     A.U. after   11 cycles
            NFock= 11  Conv=0.92D-08     -V/T= 1.9981
 KE= 1.523184884491D+02 PE=-4.350526286636D+02 EE= 9.391764892264D+01
 Leave Link  502 at Mon Sep 16 13:58:43 2024, MaxMem=   104857600 cpu:               0.1 elap:               0.1
 (Enter /usr/local/g16/l701.exe)
 ... and contract with generalized density number  0.
 Compute integral first derivatives.
 Leave Link  701 at Mon Sep 16 13:58:43 2024, MaxMem=   104857600 cpu:               0.0 elap:               0.0
 (Enter /usr/local/g16/l702.exe)
 L702 exits ... SP integral derivatives will be done elsewhere.
 Leave Link  702 at Mon Sep 16 13:58:43 2024, MaxMem=   104857600 cpu:               0.0 elap:               0.0
 (Enter /usr/local/g16/l703.exe)
 Integral derivatives from FoFJK, PRISM(SPDF).
 Compute integral first derivatives, UseDBF=F ICtDFT=           0.
 Calling FoFJK, ICntrl=      2127 FMM=F ISym2X=0 I1Cent= 0 IOpClX= 0 NMat=1 NMatS=1 NMatT=0.
 FoFJK:  IHMeth= 1 ICntrl=    2127 DoSepK=F KAlg= 0 I1Cent=           0 FoldK=F
 IRaf=         0 NMat=       1 IRICut=       1 DoRegI=T DoRafI=F ISym2E= 0 IDoP0=0 IntGTp=1.
 FoFCou: FMM=F IPFlag=           0 FMFlag=      100000 FMFlg1=         800
         NFxFlg=           0 DoJE=F BraDBF=F KetDBF=F FulRan=T
         wScrn=  0.000000 ICntrl=      2127 IOpCl=  0 I1Cent=           0 NGrid=           0
         NMat0=    1 NMatS0=      1 NMatT0=    0 NMatD0=    1 NMtDS0=    0 NMtDT0=    0
 Symmetry not used in FoFCou.
 Leave Link  703 at Mon Sep 16 13:58:43 2024, MaxMem=   104857600 cpu:               0.1 elap:               0.1
 (Enter /usr/local/g16/l716.exe)
 Dipole        =-1.18463872D+00 5.90681655D-02 2.04016418D-01
 ***** Axes restored to original set *****
 -------------------------------------------------------------------
 Center     Atomic                   Forces (Hartrees/Bohr)
 Number     Number              X              Y              Z
 -------------------------------------------------------------------
      1        8          -0.065048873   -0.010229995   -0.028563199
      2        1           0.060573775    0.003118054    0.030346199
      3        1           0.003852396    0.004899272    0.001760425
      4        8           0.000225356    0.008883398   -0.004277602
      5        1          -0.002848097   -0.003885546    0.001804305
      6        1           0.003245443   -0.002785181   -0.001070127
 -------------------------------------------------------------------
 Cartesian Forces:  Max     0.065048873 RMS     0.023495588
 Leave Link  716 at Mon Sep 16 13:58:43 2024, MaxMem=   104857600 cpu:               0.0 elap:               0.0
 (Enter /usr/local/g16/l103.exe)

 GradGradGradGradGradGradGradGradGradGradGradGradGradGradGradGradGradGrad
 Berny optimization.
 Using GEDIIS/GDIIS optimizer.
 FormGI is forming the generalized inverse of G from B-inverse, IUseBI=4.
 Internal  Forces:  Max     0.066668937 RMS     0.016849792
 Search for a local minimum.
 Step number   3 out of a maximum of   26
 All quantities printed in internal units (Hartrees-Bohrs-Radians)
 RMS Force = .16850D-01 SwitMx=.10000D-02 MixMth= 1
 Mixed Optimization -- RFO/linear search
 Update second derivatives using D2CorX and points    2    3
 DE= -9.49D-03 DEPred=-2.32D-02 R= 4.10D-01
 Trust test= 4.10D-01 RLast= 4.02D-01 DXMaxT set to 5.05D-01
 The second derivative matrix:
                          R1        R2        R3        R4        R5
           R1           0.48489
           R2          -0.01400   0.55422
           R3           0.00842   0.00108   0.03746
           R4          -0.00349  -0.00080  -0.00017   0.02521
           R5           0.01184   0.00020   0.00426  -0.00286   0.49884
           R6           0.00085   0.00035   0.00109  -0.00076   0.00390
           A1           0.03122   0.00694   0.00184  -0.00145   0.02596
           A2           0.00043  -0.00088   0.00007  -0.00000  -0.00201
           A3          -0.00341  -0.00070  -0.00008   0.00006  -0.00230
           A4           0.01116   0.00157   0.00047  -0.00034   0.00640
           A5           0.00307   0.00012   0.00016  -0.00009   0.00100
           A6          -0.00885  -0.00025  -0.00022   0.00010  -0.00205
           D1           0.00229   0.00008   0.00009  -0.00005   0.00065
           D2          -0.00658  -0.00018  -0.00017   0.00008  -0.00153
           D3           0.00306   0.00024   0.00016  -0.00010   0.00132
           D4          -0.00052   0.00001  -0.00045   0.00028  -0.00110
                          R6        A1        A2        A3        A4
           R6           0.55591
           A1           0.00692   0.17470
           A2          -0.00056  -0.00025   0.15994
           A3          -0.00062  -0.00089  -0.00008   0.15993
           A4           0.00167   0.00349   0.00001  -0.00018   0.16086
           A5           0.00026   0.00098   0.00001  -0.00001   0.00024
           A6          -0.00049  -0.00120  -0.00011  -0.00001  -0.00034
           D1           0.00017   0.00054   0.00001  -0.00000   0.00014
           D2          -0.00037  -0.00091  -0.00008  -0.00001  -0.00026
           D3           0.00035   0.00108   0.00001  -0.00002   0.00026
           D4          -0.00038  -0.00290   0.00014   0.00005  -0.00064
                          A5        A6        D1        D2        D3
           A5           0.00232
           A6          -0.00007   0.00247
           D1           0.00002  -0.00005   0.00231
           D2          -0.00005   0.00013  -0.00004   0.00240
           D3           0.00003  -0.00007   0.00002  -0.00005   0.00234
           D4           0.00003   0.00003   0.00001   0.00002  -0.00002
                          D4
           D4           0.01062
 ITU=  0  1  0
 Use linear search instead of GDIIS.
     Eigenvalues ---    0.00230   0.00230   0.01223   0.02992   0.04135
     Eigenvalues ---    0.08103   0.14782   0.16876   0.47714   0.50760
     Eigenvalues ---    0.53115   0.55665
 RFO step:  Lambda=-4.04071424D-03 EMin= 2.29831873D-03
 Quartic linear search produced a step of -0.29353.
 Iteration  1 RMS(Cart)=  0.07410786 RMS(Int)=  0.09774508
 Iteration  2 RMS(Cart)=  0.04435071 RMS(Int)=  0.04337384
 Iteration  3 RMS(Cart)=  0.02593084 RMS(Int)=  0.02322471
 Iteration  4 RMS(Cart)=  0.00203437 RMS(Int)=  0.02315546
 Iteration  5 RMS(Cart)=  0.00006917 RMS(Int)=  0.02315522
 Iteration  6 RMS(Cart)=  0.00000878 RMS(Int)=  0.02315522
 Iteration  7 RMS(Cart)=  0.00000030 RMS(Int)=  0.02315522
 ITry= 1 IFail=0 DXMaxC= 2.89D-01 DCOld= 1.00D+10 DXMaxT= 5.05D-01 DXLimC= 3.00D+00 Rises=F
 Variable       Old X    -DE/DX   Delta X   Delta X   Delta X     New X
                                 (Linear)    (Quad)   (Total)
    R1        1.69248   0.06667   0.09862   0.00712   0.10568   1.79816
    R2        1.79065  -0.00570   0.00312  -0.01197  -0.01002   1.78063
    R3        3.98972  -0.00157  -0.01876   0.05612   0.03580   4.02552
    R4        3.80543   0.00174   0.02132  -0.07830  -0.05717   3.74826
    R5        1.79265  -0.00283   0.00981  -0.02091  -0.01109   1.78156
    R6        1.79592  -0.00133   0.00174  -0.00709  -0.00022   1.79570
    A1        1.98716  -0.00513  -0.02532   0.00504  -0.00780   1.97936
    A2        2.50120   0.00092   0.00564  -0.03993  -0.01945   2.48175
    A3        2.59624  -0.00148   0.00385  -0.01543   0.00265   2.59890
    A4        1.92167  -0.00009  -0.00551  -0.00185  -0.03576   1.88592
    A5        2.92900   0.00001   0.01398  -0.25477  -0.25913   2.66986
    A6        2.75205  -0.00216   0.01367  -0.10028  -0.05375   2.69830
    D1        1.81303  -0.00137   0.00391  -0.23806  -0.24249   1.57054
    D2       -2.41384   0.00120   0.00786   0.10100   0.14353  -2.27032
    D3        1.24605  -0.00181  -0.03011   0.54680   0.46496   1.71101
    D4       -1.50618  -0.00309  -0.03434   0.14642   0.15449  -1.35169
         Item               Value     Threshold  Converged?
 Maximum Force            0.066669     0.000450     NO 
 RMS     Force            0.016850     0.000300     NO 
 Maximum Displacement     0.289375     0.001800     NO 
 RMS     Displacement     0.124096     0.001200     NO 
 Predicted change in Energy=-2.850724D-03
 Lowest energy point so far.  Saving SCF results.
 GradGradGradGradGradGradGradGradGradGradGradGradGradGradGradGradGradGrad

 Leave Link  103 at Mon Sep 16 13:58:43 2024, MaxMem=   104857600 cpu:               0.0 elap:               0.0
 (Enter /usr/local/g16/l202.exe)
                          Input orientation:                          
 ---------------------------------------------------------------------
 Center     Atomic      Atomic             Coordinates (Angstroms)
 Number     Number       Type             X           Y           Z
 ---------------------------------------------------------------------
      1          8           0       -4.122856    0.715316   -0.310085
      2          1           0       -3.309182    1.033238    0.067140
      3          1           0       -4.219024   -0.220595   -0.258184
      4          8           0       -1.202122    0.791568    0.266415
      5          1           0       -0.394598    1.053954    0.676120
      6          1           0       -1.422948    1.440534   -0.391642
 ---------------------------------------------------------------------
                    Distance matrix (angstroms):
                    1          2          3          4          5
     1  O    0.000000
     2  H    0.951545   0.000000
     3  H    0.942270   1.582955   0.000000
     4  O    2.978062   2.130215   3.225117   0.000000
     5  H    3.871328   2.977597   4.138071   0.942762   0.000000
     6  H    2.796800   1.983494   3.255027   0.950242   1.532013
                    6
     6  H    0.000000
 Stoichiometry    H4O2
 Framework group  C1[X(H4O2)]
 Deg. of freedom    12
 Full point group                 C1      NOp   1
 RotChk:  IX=3 Diff= 7.48D-02
 Largest Abelian subgroup         C1      NOp   1
 Largest concise Abelian subgroup C1      NOp   1
                         Standard orientation:                         
 ---------------------------------------------------------------------
 Center     Atomic      Atomic             Coordinates (Angstroms)
 Number     Number       Type             X           Y           Z
 ---------------------------------------------------------------------
      1          8           0        1.553093    0.078492   -0.017148
      2          1           0        0.659655    0.236799   -0.303760
      3          1           0        1.717395   -0.819114    0.217758
      4          8           0       -1.419561   -0.097626    0.016919
      5          1           0       -2.308248   -0.002379   -0.283022
      6          1           0       -1.137056    0.737765    0.370859
 ---------------------------------------------------------------------
 Rotational constants (GHZ):         273.9176736           6.2170333           6.1332444
 Leave Link  202 at Mon Sep 16 13:58:43 2024, MaxMem=   104857600 cpu:               0.0 elap:               0.0
 (Enter /usr/local/g16/l301.exe)
 Standard basis: 6-311G (5D, 7F)
 Ernie: Thresh=  0.10000D-02 Tol=  0.10000D-05 Strict=F.
 There are    38 symmetry adapted cartesian basis functions of A   symmetry.
 There are    38 symmetry adapted basis functions of A   symmetry.
    38 basis functions,    72 primitive gaussians,    38 cartesian basis functions
    10 alpha electrons       10 beta electrons
       nuclear repulsion energy        36.5814216218 Hartrees.
 IExCor=    0 DFT=F Ex=HF Corr=None ExCW=0 ScaHFX=  1.000000
 ScaDFX=  1.000000  1.000000  1.000000  1.000000 ScalE2=  1.000000  1.000000
 IRadAn=      5 IRanWt=     -1 IRanGd=            0 ICorTp=0 IEmpDi=  4
 NAtoms=    6 NActive=    6 NUniq=    6 SFac= 1.00D+00 NAtFMM=   60 NAOKFM=F Big=F
 Integral buffers will be    131072 words long.
 Raffenetti 1 integral format.
[...]
     12 -0.286784D-03  0.106656D-03 -0.236142D-02  0.373029D-02  0.300638D-02
     13  0.207417D-03  0.427097D-04 -0.429357D-02  0.349575D-02 -0.542694D-02
     14 -0.214855D-03 -0.411322D-04  0.357380D-02 -0.272243D-02  0.542350D-02
     15  0.118125D-04  0.459273D-05 -0.512498D-04  0.372424D-04 -0.515117D-04
     16  0.189645D-02  0.963813D-04 -0.455778D-02  0.702224D-02 -0.431786D-03
                6             7             8             9            10 
      6  0.442779D+00
      7 -0.149399D-03  0.162655D+00
      8 -0.864868D-01  0.213687D-05  0.177110D-01
      9  0.569004D-01  0.727879D-03 -0.825465D-02  0.293751D-01
     10  0.106958D+00  0.622056D-03 -0.268936D-01 -0.167151D-01  0.106298D+00
     11  0.139307D-02  0.103933D-04 -0.261967D-03  0.240221D-03  0.542933D-03
     12  0.511997D-01 -0.294237D-03 -0.976158D-02  0.816723D-02  0.216345D-01
     13 -0.115607D-01  0.263855D-03  0.336495D-02  0.359107D-02 -0.191662D-01
     14  0.109809D-01 -0.284799D-03 -0.344189D-02 -0.511431D-02  0.188834D-01
     15 -0.149876D-04  0.297890D-04  0.642786D-04  0.473509D-04 -0.141937D-03
     16  0.427123D-01  0.652453D-03 -0.866492D-02  0.558096D-02  0.122651D-01
               11            12            13            14            15 
     11  0.779997D-05
     12  0.289618D-03  0.108042D-01
     13 -0.907455D-04 -0.376401D-02  0.449379D-02
     14  0.636890D-04  0.267258D-02 -0.341023D-02  0.441312D-02
     15  0.239008D-05  0.792163D-04  0.515191D-04 -0.425618D-04  0.000000D+00
     16  0.147474D-03  0.538153D-02 -0.946992D-03  0.749457D-03  0.000000D+00
               16 
     16  0.574167D-02
 Leave Link  716 at Mon Sep 16 13:58:56 2024, MaxMem=   104857600 cpu:               0.0 elap:               0.0
 (Enter /usr/local/g16/l103.exe)

 GradGradGradGradGradGradGradGradGradGradGradGradGradGradGradGradGradGrad
 Berny optimization.
 Red2BG is reusing G-inverse.
 Internal  Forces:  Max     0.000016334 RMS     0.000005740
 Search for a local minimum.
 Step number   1 out of a maximum of    2
 All quantities printed in internal units (Hartrees-Bohrs-Radians)
 Second derivative matrix not updated -- analytic derivatives used.
 The second derivative matrix:
                          R1        R2        R3        R4        R5
           R1           0.57512
           R2          -0.00775   0.60640
           R3           0.01112  -0.00014   0.03216
           R4           0.00319  -0.00001  -0.02091   0.02663
           R5          -0.00044  -0.00004   0.00865  -0.00909   0.60661
           R6          -0.00273  -0.00016  -0.07185   0.08005  -0.00148
           A1           0.02993   0.04121   0.00274   0.00078   0.00020
           A2           0.00029  -0.00031   0.01189  -0.01425  -0.00159
           A3           0.00321  -0.00014  -0.01195   0.01665  -0.00765
           A4           0.00104  -0.00016   0.01107  -0.00599   0.02372
           A5           0.00002  -0.00002  -0.00008   0.00012   0.00007
           A6          -0.00029   0.00011  -0.00236   0.00373   0.00301
           D1           0.00021   0.00004  -0.00429   0.00350  -0.00543
           D2          -0.00021  -0.00004   0.00357  -0.00272   0.00542
           D3           0.00001   0.00000  -0.00005   0.00004  -0.00005
           D4           0.00190   0.00010  -0.00456   0.00702  -0.00043
                          R6        A1        A2        A3        A4
           R6           0.44278
           A1          -0.00015   0.16266
           A2          -0.08649   0.00000   0.01771
           A3           0.05690   0.00073  -0.00825   0.02938
           A4           0.10696   0.00062  -0.02689  -0.01672   0.10630
           A5           0.00139   0.00001  -0.00026   0.00024   0.00054
           A6           0.05120  -0.00029  -0.00976   0.00817   0.02163
           D1          -0.01156   0.00026   0.00336   0.00359  -0.01917
           D2           0.01098  -0.00028  -0.00344  -0.00511   0.01888
           D3          -0.00001   0.00003   0.00006   0.00005  -0.00014
           D4           0.04271   0.00065  -0.00866   0.00558   0.01227
                          A5        A6        D1        D2        D3
           A5           0.00001
           A6           0.00029   0.01080
           D1          -0.00009  -0.00376   0.00449
           D2           0.00006   0.00267  -0.00341   0.00441
           D3           0.00000   0.00008   0.00005  -0.00004   0.00000
           D4           0.00015   0.00538  -0.00095   0.00075  -0.00000
                          D4
           D4           0.00574
 ITU=  0
     Eigenvalues ---   -0.00001   0.00088   0.00109   0.00212   0.00741
     Eigenvalues ---    0.02084   0.11525   0.15668   0.53058   0.57705
     Eigenvalues ---    0.60837   0.61093
 Eigenvalue     1 is  -9.48D-06 should be greater than     0.000000 Eigenvector:
                          D3        A6        A2        D1        R4
   1                   -0.99544   0.06986   0.04233   0.03283   0.02561
                          A3        D2        A5        D4        A1
   1                   -0.02508  -0.00590   0.00529  -0.00214   0.00025
 Angle between quadratic step and forces=  87.84 degrees.
 Linear search not attempted -- first point.
 Iteration  1 RMS(Cart)=  0.00042210 RMS(Int)=  0.00167881
 Iteration  2 RMS(Cart)=  0.00001310 RMS(Int)=  0.00001209
 Iteration  3 RMS(Cart)=  0.00000026 RMS(Int)=  0.00001209
 ITry= 1 IFail=0 DXMaxC= 8.94D-04 DCOld= 1.00D+10 DXMaxT= 3.00D-01 DXLimC= 3.00D+00 Rises=F
 Variable       Old X    -DE/DX   Delta X   Delta X   Delta X     New X
                                 (Linear)    (Quad)   (Total)
    R1        1.79936   0.00001   0.00000   0.00002   0.00002   1.79938
    R2        1.78430   0.00000   0.00000   0.00001   0.00001   1.78431
    R3        3.51789  -0.00000   0.00000  -0.00008  -0.00008   3.51781
    R4        4.66866   0.00000   0.00000  -0.00077  -0.00077   4.66790
    R5        1.78583  -0.00001   0.00000  -0.00001  -0.00001   1.78582
    R6        1.78581   0.00002   0.00000   0.00003   0.00003   1.78584
    A1        1.95505  -0.00000   0.00000  -0.00003  -0.00003   1.95502
    A2        2.79993  -0.00000   0.00000  -0.00064  -0.00063   2.79930
    A3        2.09372   0.00000   0.00000   0.00002   0.00001   2.09373
    A4        1.96647   0.00001   0.00000   0.00001  -0.00000   1.96647
    A5        3.14143   0.00000   0.00000  -0.00018  -0.00021   3.14122
    A6        3.13574   0.00001   0.00000  -0.00094  -0.00094   3.13481
    D1        1.85497   0.00000   0.00000  -0.00083  -0.00085   1.85412
    D2       -1.85517  -0.00000   0.00000  -0.00121  -0.00119  -1.85636
    D3        0.33560   0.00000   0.00000   0.04792   0.04792   0.38352
    D4       -2.60844   0.00000   0.00000   0.00127   0.00129  -2.60715
         Item               Value     Threshold  Converged?
 Maximum Force            0.000016     0.000450     YES
 RMS     Force            0.000006     0.000300     YES
 Maximum Displacement     0.000894     0.001800     YES
 RMS     Displacement     0.000417     0.001200     YES
 Predicted change in Energy=-4.245953D-08
 Optimization completed.
    -- Stationary point found.
                           ----------------------------
                           !   Optimized Parameters   !
                           ! (Angstroms and Degrees)  !
 --------------------------                            --------------------------
 ! Name  Definition              Value          Derivative Info.                !
 --------------------------------------------------------------------------------
 ! R1    R(1,2)                  0.9522         -DE/DX =    0.0                 !
 ! R2    R(1,3)                  0.9442         -DE/DX =    0.0                 !
 ! R3    R(2,4)                  1.8616         -DE/DX =    0.0                 !
 ! R4    R(2,6)                  2.4706         -DE/DX =    0.0                 !
 ! R5    R(4,5)                  0.945          -DE/DX =    0.0                 !
 ! R6    R(4,6)                  0.945          -DE/DX =    0.0                 !
 ! A1    A(2,1,3)              112.0161         -DE/DX =    0.0                 !
 ! A2    A(1,2,6)              160.4245         -DE/DX =    0.0                 !
 ! A3    A(2,4,5)              119.9613         -DE/DX =    0.0                 !
 ! A4    A(5,4,6)              112.6707         -DE/DX =    0.0                 !
 ! A5    L(1,2,4,3,-1)         179.9905         -DE/DX =    0.0                 !
 ! A6    L(1,2,4,3,-2)         179.6649         -DE/DX =    0.0                 !
 ! D1    D(3,1,2,6)            106.2819         -DE/DX =    0.0                 !
 ! D2    D(3,1,4,5)           -106.2933         -DE/DX =    0.0                 !
 ! D3    D(1,2,4,6)             19.2284         -DE/DX =    0.0                 !
 ! D4    D(2,4,5,6)           -149.4526         -DE/DX =    0.0                 !
 --------------------------------------------------------------------------------
 GradGradGradGradGradGradGradGradGradGradGradGradGradGradGradGradGradGrad

 Leave Link  103 at Mon Sep 16 13:58:56 2024, MaxMem=   104857600 cpu:               0.0 elap:               0.0
 (Enter /usr/local/g16/l9999.exe)

 ----------------------------------------------------------------------

 Electric dipole moment (input orientation):
 (Debye = 10**-18 statcoulomb cm , SI units = C m)
                  (au)            (Debye)         (10**-30 SI)
   Tot        0.169265D+01      0.430229D+01      0.143509D+02
   x          0.168300D+01      0.427775D+01      0.142690D+02
   y         -0.150453D+00     -0.382414D+00     -0.127560D+01
   z         -0.997494D-01     -0.253538D+00     -0.845711D+00

 Dipole polarizability, Alpha (input orientation).
 (esu units = cm**3 , SI units = C**2 m**2 J**-1)
 Alpha(0;0):
               (au)            (10**-24 esu)      (10**-40 SI)
   iso        0.972709D+01      0.144141D+01      0.160378D+01
   aniso      0.516550D+01      0.765448D+00      0.851676D+00
   xx         0.112540D+02      0.166767D+01      0.185553D+01
   yx         0.249645D+01      0.369936D+00      0.411609D+00
   yy         0.868098D+01      0.128639D+01      0.143130D+01
   zx         0.853106D+00      0.126417D+00      0.140658D+00
   zy        -0.325062D+00     -0.481692D-01     -0.535955D-01
   zz         0.924633D+01      0.137016D+01      0.152451D+01

 First dipole hyperpolarizability, Beta (input orientation).
 ||, _|_  parallel and perpendicular components, (z) with respect to z axis,
 vector components x,y,z.  Values do not include the 1/n! factor of 1/2.
 (esu units = statvolt**-1 cm**4 , SI units = C**3 m**3 J**-2)
 Beta(0;0,0):
               (au)            (10**-30 esu)      (10**-50 SI)
   || (z)    -0.280744D+01     -0.242541D-01     -0.900167D-02
   _|_(z)    -0.935813D+00     -0.808470D-02     -0.300056D-02
   x          0.802474D+02      0.693275D+00      0.257302D+00
   y         -0.336019D+02     -0.290295D+00     -0.107740D+00
   z         -0.140372D+02     -0.121270D+00     -0.450083D-01
   ||         0.176247D+02      0.152264D+00      0.565112D-01
   xxx        0.988890D+01      0.854324D-01      0.317074D-01
   xxy       -0.149319D+00     -0.129000D-02     -0.478771D-03
   yxy       -0.341994D+00     -0.295456D-02     -0.109656D-02
   yyy       -0.141219D+02     -0.122003D+00     -0.452800D-01
   xxz        0.892804D+00      0.771313D-02      0.286265D-02
   yxz       -0.688860D+01     -0.595121D-01     -0.220873D-01
   yyz       -0.101797D+02     -0.879447D-01     -0.326398D-01
   zxz        0.172022D+02      0.148614D+00      0.551565D-01
   zyz        0.307061D+01      0.265277D-01      0.984548D-02
   zzz        0.460783D+01      0.398080D-01      0.147744D-01

 ----------------------------------------------------------------------

 Dipole orientation:
     8          0.48863011          0.56728555         -7.83276833
     1          0.39333386          0.92559018         -6.07201780
     1          0.92133666         -1.13509561         -8.14646759
     8          0.21826226          1.62839074         -2.62949143
     1         -1.37011510          1.85255593         -1.84463729
     1          1.51042187          2.58679612         -1.85432528

 Electric dipole moment (dipole orientation):
 (Debye = 10**-18 statcoulomb cm , SI units = C m)
                  (au)            (Debye)         (10**-30 SI)
   Tot        0.169265D+01      0.430229D+01      0.143509D+02
   x          0.000000D+00      0.000000D+00      0.000000D+00
   y          0.000000D+00      0.000000D+00      0.000000D+00
   z          0.169265D+01      0.430229D+01      0.143509D+02

 Dipole polarizability, Alpha (dipole orientation).
 (esu units = cm**3 , SI units = C**2 m**2 J**-1)
 Alpha(0;0):
               (au)            (10**-24 esu)      (10**-40 SI)
   iso        0.972709D+01      0.144141D+01      0.160378D+01
   aniso      0.516550D+01      0.765448D+00      0.851676D+00
   xx         0.936921D+01      0.138837D+01      0.154477D+01
   yx         0.690296D-01      0.102291D-01      0.113814D-01
   yy         0.913005D+01      0.135293D+01      0.150534D+01
   zx        -0.719624D+00     -0.106637D+00     -0.118650D+00
   zy         0.277007D+01      0.410482D+00      0.456723D+00
   zz         0.106820D+02      0.158291D+01      0.176123D+01

 First dipole hyperpolarizability, Beta (dipole orientation).
 ||, _|_  parallel and perpendicular components, (z) with respect to z axis,
 vector components x,y,z.  Values do not include the 1/n! factor of 1/2.
 (esu units = statvolt**-1 cm**4 , SI units = C**3 m**3 J**-2)
 Beta(0;0,0):
               (au)            (10**-30 esu)      (10**-50 SI)
   || (z)     0.167207D+02      0.144454D+00      0.536127D-01
   _|_(z)     0.557358D+01      0.481514D-01      0.178709D-01
   x          0.674612D+01      0.582813D-01      0.216305D-01
   y         -0.270312D+02     -0.233529D+00     -0.866719D-01
   z          0.836037D+02      0.722271D+00      0.268064D+00
   ||         0.176247D+02      0.152264D+00      0.565112D-01
   xxx       -0.619912D+01     -0.535556D-01     -0.198766D-01
   xxy        0.632249D+01      0.546214D-01      0.202722D-01
   yxy        0.894082D+01      0.772417D-01      0.286675D-01
   yyy       -0.167551D+02     -0.144751D+00     -0.537230D-01
   xxz        0.175998D+02      0.152048D+00      0.564312D-01
   yxz        0.455984D+01      0.393935D-01      0.146205D-01
   yyz        0.688920D+00      0.595174D-02      0.220893D-02
   zxz       -0.492995D+00     -0.425909D-02     -0.158072D-02
   zyz        0.142225D+01      0.122871D-01      0.456024D-02
   zzz        0.957922D+01      0.827570D-01      0.307144D-01

 ----------------------------------------------------------------------
 1\1\GINC-SV1-C724\Freq\RHF\6-311G\H4O2\LME\16-Sep-2024\0\\#P Geom=AllC
 heck Guess=TCheck SCRF=Check GenChk RHF/6-311G Freq\\Title Card Requir
 ed\\0,1\O,-4.1061583873,0.6903841141,0.0138501328\H,-3.1593680718,0.79
 08433529,0.0259356884\H,-4.3673888989,-0.1666544742,-0.2841138792\O,-1
 .3084420171,0.9890019671,0.0437536392\H,-0.8418666783,0.9907747864,0.8
 655614675\H,-0.8875064967,1.5196656337,-0.6152215386\\Version=ES64L-G1
 6RevA.03\State=1-A\HF=-152.034931\RMSD=3.699e-09\RMSF=6.047e-05\ZeroPo
 int=0.0495026\Thermal=0.055107\Dipole=1.6829961,-0.1504532,-0.0997494\
 DipoleDeriv=-0.7749275,-0.0715764,-0.0305975,-0.0254506,-0.5310396,0.1
 647697,-0.0140568,0.1659728,-0.933678,0.5044326,0.1023922,0.0349163,0.
 0837054,0.3998461,-0.0263075,0.027769,-0.0268697,0.4577032,0.3809342,0
 .0036373,0.0034815,-0.0403128,0.0956308,-0.1315897,-0.0121709,-0.13271
 69,0.4220478,-0.7432585,0.158754,0.0620753,0.2045645,-0.7889033,-0.090
 9808,0.0787368,-0.0897277,-0.5860599,0.311327,-0.067592,-0.1211293,-0.
 0861512,0.4508004,-0.0102174,-0.1160584,-0.0020001,0.2864044,0.3214921
 ,-0.1256151,0.0512536,-0.1363553,0.3736656,0.0943258,0.0357803,0.08534
 16,0.3535825\Polar=11.2539679,2.4964486,8.6809802,0.8531062,-0.325062,
 9.2463266\PolarDeriv=-7.3733501,0.7022476,0.0465954,0.4248094,-0.07233
 25,0.2668868,1.0365256,0.5024036,6.3226536,0.4533365,1.901271,0.166047
 ,0.5087462,0.5002982,1.3460235,-0.7067119,1.7756869,0.9940081,8.806776
 6,1.3210721,0.7084141,0.2549584,0.4257422,-0.42073,0.247433,0.970286,0
 .1799947,-0.0842507,-0.005376,-0.1699545,-0.0769644,-0.0987739,-0.1517
 495,1.1392196,0.239348,0.0931431,-1.0975939,-1.800126,-0.5763384,-0.62
 42242,-0.2815101,0.1301589,-1.01144,-1.9156138,-6.6752268,-0.3946897,-
 1.9057025,-0.0026934,-0.3669557,-0.4274152,-1.1923756,-0.8391921,-2.10
 85111,-1.1341653,-4.6500756,-1.8923171,-0.8288575,-0.7729953,1.0546084
 ,-3.4281468,-1.2393807,-2.1033373,-2.3532418,0.6090985,0.8002808,-1.76
 96742,-0.5440492,0.6333983,0.7183836,-3.6829571,-1.6626909,-1.8245587,
 2.3193098,0.1605312,0.0705375,2.3599154,-0.2555527,2.0001779,0.0590957
 ,0.9024071,0.0303409,-0.0162576,1.4008174,0.4641527,1.5033875,0.452042
 3,-0.1833017,2.5080476,-0.1382736,5.3260365,1.9949332,1.5085922,0.5796
 49,-1.6424638,-0.8709554,1.4516532,0.9077663,1.6438544,2.4954794,-0.56
 7237,-2.1912907,1.3121224,-1.0241644,-1.0595497,-0.5369803,1.5815938,1
 .8944407,-3.4544636\HyperPolar=9.8889016,-0.149319,-0.3419943,-14.1219
 363,0.8928041,-6.8886006,-10.1796977,17.2022138,3.0706081,4.6078274\Qu
 adrupole=0.2118035,-0.0333129,-0.1784906,4.3667642,1.5454518,-0.100662
 7\PG=C01 [X(H4O2)]\NImag=0\\0.65548609,0.18639612,0.54252245,0.0500208
 8,0.18579454,0.07122953,-0.54560213,-0.07988447,-0.01504758,0.55360157
 ,-0.01380810,-0.06017942,-0.01737164,0.06962150,0.07287862,0.00843521,
 -0.01573993,-0.01611388,0.01142859,0.01745291,0.02477678,-0.09792614,-
 0.10289133,-0.03414897,-0.00595035,-0.05665269,-0.01995987,0.10584132,
 -0.17039977,-0.48614992,-0.16800770,0.01139693,-0.00622365,-0.00288749
 ,0.15836273,0.49234349,-0.05813129,-0.16968586,-0.06012071,0.00422206,
 -0.00119927,0.00058704,0.05364755,0.17069391,0.06006355,-0.01062484,-0
 .00473572,-0.00117439,-0.00377925,0.00419932,0.00122868,-0.00186327,0.
 00052772,0.00020040,0.34349148,-0.00168674,0.00573256,-0.00058647,-0.0
 0331258,-0.00977656,0.00111610,0.00166857,0.00002269,0.00039467,0.1828
 3076,0.21765094,-0.00013316,-0.00049977,0.00735190,-0.00140662,0.00090
 293,-0.01230299,0.00061646,0.00042367,-0.00108005,0.08117945,-0.234510
 60,0.77216559,-0.00058344,-0.00026268,0.00248755,0.00070324,0.00005353
 ,-0.00544886,-0.00005939,0.00016700,-0.00027745,-0.17562727,-0.0133153
 0,-0.26368279,0.16398087,-0.00060024,-0.00123431,0.00059971,0.00150973
 ,0.00203605,-0.00054956,-0.00025615,0.00010753,-0.00043627,-0.03576048
 ,-0.02295606,-0.00701839,0.01743007,0.02092386,0.00092103,0.00026341,-
 0.00098945,-0.00082359,-0.00033959,0.00131321,-0.00006395,-0.00003282,
 0.00017976,-0.20940801,0.03152771,-0.45489008,0.23699227,-0.02279288,0
 .48023668,-0.00074954,0.00137807,-0.00213749,0.00102691,-0.00341355,0.
 00431625,-0.00004217,-0.00005461,0.00033873,-0.15159685,-0.16618470,0.
 18342666,0.01158599,0.01767707,-0.02761775,0.13977566,0.00009874,-0.00
 069137,-0.00042845,0.00066889,0.00126495,0.00060796,-0.00023113,-0.000
 10014,0.00023283,-0.14706160,-0.19067358,0.24070216,-0.00407262,0.0011
 2294,-0.00862583,0.15059773,0.18907720,-0.00111268,-0.00013239,-0.0013
 5738,0.00162714,0.00055467,0.00173983,-0.00009121,-0.00018957,0.000370
 40,0.12797387,0.20205858,-0.31124437,0.02992928,0.03019739,-0.02585011
 ,-0.15832640,-0.23248867,0.33634163\\-0.00000544,0.00012555,0.00003165
 ,0.00001004,-0.00019809,-0.00005194,0.00000021,0.00000419,0.00000241,-
 0.00000728,0.00008081,0.00000022,0.00000646,-0.00000118,0.00000479,-0.
 00000399,-0.00001128,0.00001286\\\@


 ALL THINGS ARE POSSIBLE EXCEPT SKIING THROUGH A REVOLVING DOOR.
 Job cpu time:       0 days  0 hours  0 minutes  1.1 seconds.
 Elapsed time:       0 days  0 hours  0 minutes  1.1 seconds.
 File lengths (MBytes):  RWF=      6 Int=      0 D2E=      0 Chk=      1 Scr=      1
 Normal termination of Gaussian 16 at Mon Sep 16 13:58:56 2024.
