Title Card Required                                                     
Freq      RHF                                                         6-311G(d,p)         
Number of atoms                            I                5
Info1-9                                    I   N=           9
          18          18        1002           0           0         100
           6           1           2
Full Title                                 C   N=           2
Title Card Required     
Route                                      C   N=           4
# opt freq hf/6-311g(d,p) geom=connectivity     
Charge                                     I                0
Multiplicity                               I                1
Number of electrons                        I               20
Number of alpha electrons                  I               10
Number of beta electrons                   I               10
Number of basis functions                  I               54
Number of independent functions            I               54
Number of point charges in /Mol/           I                0
Number of translation vectors              I                0
Atomic numbers                             I   N=           5
           9           1           8           1           1
Nuclear charges                            R   N=           5
  9.00000000E+00  1.00000000E+00  8.00000000E+00  1.00000000E+00  1.00000000E+00
Current cartesian coordinates              R   N=          15
  2.72508642E+00 -2.25567427E-05  2.49256769E-02  1.01650892E+00 -7.23354592E-04
 -1.03708573E-01 -2.37542184E+00 -1.95303285E-04 -1.25871733E-01 -3.27145426E+00
 -1.42851594E+00  4.43654631E-01 -3.26745772E+00  1.43100473E+00  4.42696712E-01
Number of symbols in /Mol/                 I                0
Force Field                                I                0
Atom Types                                 C   N=           5
                                                            
Int Atom Types                             I   N=           5
           0           0           0           0           0
MM charges                                 R   N=           5
  0.00000000E+00  0.00000000E+00  0.00000000E+00  0.00000000E+00  0.00000000E+00
Integer atomic weights                     I   N=           5
          19           1          16           1           1
Real atomic weights                        R   N=           5
  1.89984032E+01  1.00782504E+00  1.59949146E+01  1.00782504E+00  1.00782504E+00
Atom fragment info                         I   N=           5
           0           0           0           0           0
Atom residue num                           I   N=           5
           0           0           0           0           0
Nuclear spins                              I   N=           5
           1           1           0           1           1
Nuclear ZEff                               R   N=           5
 -6.75000000E+00 -1.00000000E+00 -5.60000000E+00 -1.00000000E+00 -1.00000000E+00
Nuclear ZNuc                               R   N=           5
  9.00000000E+00  1.00000000E+00  8.00000000E+00  1.00000000E+00  1.00000000E+00
Nuclear QMom                               R   N=           5
  0.00000000E+00  0.00000000E+00  0.00000000E+00  0.00000000E+00  0.00000000E+00
Nuclear GFac                               R   N=           5
  2.62886700E+00  2.79284600E+00  0.00000000E+00  2.79284600E+00  2.79284600E+00
MicOpt                                     I   N=           5
          -1          -1          -1          -1          -1
Number of residues                         I                0
Number of secondary structures             I                0
Redundant internal dimensions              I   N=           4
          10           4           5           1
Redundant internal coordinate indices      I   N=          40
           1           2           0           0           2           3
           0           0           3           4           0           0
           3           5           0           0           2           3
           4           0           2           3           5           0
           4           3           5           0           1           2
           3         -51           1           2           3         -52
           2           3           5           4
Redundant internal coordinates             R   N=          10
  1.71341307E+00  3.39200320E+00  1.77970060E+00  1.77969987E+00  2.09583567E+00
  2.09353544E+00  1.86587382E+00  3.11034999E+00  3.31470872E+00 -2.46510080E+00
ZRed-IntVec                                I   N=          10
           0           0           0           0           0           0
           0           0           0           0
ZRed-FPVec                                 R   N=          10
  0.00000000E+00  0.00000000E+00  0.00000000E+00  0.00000000E+00  0.00000000E+00
  0.00000000E+00  0.00000000E+00  0.00000000E+00  0.00000000E+00  0.00000000E+00
ZRed-Constraint1                           R   N=          10
  1.71341307E+00  3.39200320E+00  1.77970060E+00  1.77969987E+00  2.09583567E+00
  2.09353544E+00  1.86587382E+00  3.11034999E+00  3.31470872E+00 -2.46510080E+00
ZRed-Constraint2                           R   N=          10
  1.58446179E+00  3.87828926E+00  1.90975721E+00  1.81413708E+00  2.25370170E+00
  1.63301796E+00  1.96457370E+00  3.18089126E+00  3.32614080E+00 -2.36108825E+00
SymInf integers                            I   N=          26
           1           1           1           1           1           0
           0           0           0           0           0           0
           0           0           0           0           0           0
           0           0           0           0           0           0
           0           0
RotTr to input orientation                 R   N=          12
  8.81642970E-01 -3.50152235E-01  3.16384396E-01 -3.50762965E-01 -9.34725157E-01
 -5.70457989E-02  3.15707168E-01 -6.06819012E-02 -9.46914300E-01 -6.08145380E+00
 -1.63541011E-01  1.37788164E+00
Number of contracted shells                I               22
Number of primitive shells                 I               42
Pure/Cartesian d shells                    I                0
Pure/Cartesian f shells                    I                0
Highest angular momentum                   I                2
Largest degree of contraction              I                6
Shell types                                I   N=          22
           0          -1          -1          -1          -2           0
           0           0           1           0          -1          -1
          -1          -2           0           0           0           1
           0           0           0           1
Number of primitives per shell             I   N=          22
           6           3           1           1           1           3
           1           1           1           6           3           1
           1           1           3           1           1           1
           3           1           1           1
Shell to atom map                          I   N=          22
           1           1           1           1           1           2
           2           2           2           3           3           3
           3           3           4           4           4           4
           5           5           5           5
Primitive exponents                        R   N=          42
  1.14271000E+04  1.72235000E+03  3.95746000E+02  1.15139000E+02  3.36026000E+01
  4.91901000E+00  5.54441000E+01  1.26323000E+01  3.71756000E+00  1.16545000E+00
  3.21892000E-01  1.75000000E+00  3.38650000E+01  5.09479000E+00  1.15879000E+00
  3.25840000E-01  1.02741000E-01  7.50000000E-01  8.58850000E+03  1.29723000E+03
  2.99296000E+02  8.73771000E+01  2.56789000E+01  3.74004000E+00  4.21175000E+01
  9.62837000E+00  2.85332000E+00  9.05661000E-01  2.55611000E-01  1.29200000E+00
  3.38650000E+01  5.09479000E+00  1.15879000E+00  3.25840000E-01  1.02741000E-01
  7.50000000E-01  3.38650000E+01  5.09479000E+00  1.15879000E+00  3.25840000E-01
  1.02741000E-01  7.50000000E-01
Contraction coefficients                   R   N=          42
  1.80093016E-03  1.37419012E-02  6.81334059E-02  2.33325020E-01  5.89086051E-01
  2.99505026E-01  1.14536016E-01  9.20512125E-01 -3.37804046E-03  1.00000000E+00
  1.00000000E+00  1.00000000E+00  2.54938145E-02  1.90373109E-01  8.52161486E-01
  1.00000000E+00  1.00000000E+00  1.00000000E+00  1.89515008E-03  1.43859006E-02
  7.07320031E-02  2.40001011E-01  5.94797026E-01  2.80802012E-01  1.13889012E-01
  9.20811101E-01 -3.27447036E-03  1.00000000E+00  1.00000000E+00  1.00000000E+00
  2.54938145E-02  1.90373109E-01  8.52161486E-01  1.00000000E+00  1.00000000E+00
  1.00000000E+00  2.54938145E-02  1.90373109E-01  8.52161486E-01  1.00000000E+00
  1.00000000E+00  1.00000000E+00
P(S=P) Contraction coefficients            R   N=          42
  0.00000000E+00  0.00000000E+00  0.00000000E+00  0.00000000E+00  0.00000000E+00
  0.00000000E+00  3.54608874E-02  2.37450915E-01  8.20457708E-01  1.00000000E+00
  1.00000000E+00  0.00000000E+00  0.00000000E+00  0.00000000E+00  0.00000000E+00
  0.00000000E+00  0.00000000E+00  0.00000000E+00  0.00000000E+00  0.00000000E+00
  0.00000000E+00  0.00000000E+00  0.00000000E+00  0.00000000E+00  3.65113974E-02
  2.37152983E-01  8.19701941E-01  1.00000000E+00  1.00000000E+00  0.00000000E+00
  0.00000000E+00  0.00000000E+00  0.00000000E+00  0.00000000E+00  0.00000000E+00
  0.00000000E+00  0.00000000E+00  0.00000000E+00  0.00000000E+00  0.00000000E+00
  0.00000000E+00  0.00000000E+00
Coordinates of each shell                  R   N=          66
  2.72508642E+00 -2.25567427E-05  2.49256769E-02  2.72508642E+00 -2.25567427E-05
  2.49256769E-02  2.72508642E+00 -2.25567427E-05  2.49256769E-02  2.72508642E+00
 -2.25567427E-05  2.49256769E-02  2.72508642E+00 -2.25567427E-05  2.49256769E-02
  1.01650892E+00 -7.23354592E-04 -1.03708573E-01  1.01650892E+00 -7.23354592E-04
 -1.03708573E-01  1.01650892E+00 -7.23354592E-04 -1.03708573E-01  1.01650892E+00
 -7.23354592E-04 -1.03708573E-01 -2.37542184E+00 -1.95303285E-04 -1.25871733E-01
 -2.37542184E+00 -1.95303285E-04 -1.25871733E-01 -2.37542184E+00 -1.95303285E-04
 -1.25871733E-01 -2.37542184E+00 -1.95303285E-04 -1.25871733E-01 -2.37542184E+00
 -1.95303285E-04 -1.25871733E-01 -3.27145426E+00 -1.42851594E+00  4.43654631E-01
 -3.27145426E+00 -1.42851594E+00  4.43654631E-01 -3.27145426E+00 -1.42851594E+00
  4.43654631E-01 -3.27145426E+00 -1.42851594E+00  4.43654631E-01 -3.26745772E+00
  1.43100473E+00  4.42696712E-01 -3.26745772E+00  1.43100473E+00  4.42696712E-01
 -3.26745772E+00  1.43100473E+00  4.42696712E-01 -3.26745772E+00  1.43100473E+00
  4.42696712E-01
Num ILSW                                   I              100
ILSW                                       I   N=         100
           0           0           0           0           2           0
           0           0           0           0           0          -1
           5           0           0           0           2           0
           0           0           1           0           1           0
           1           0           0           0           0           0
           0           0      100000           0          -1           0
           0           0           0           0           0           0
           0           0           0           1           0           0
           0 -2000000000           1           0           0           0
           0           0           4          52           0           0
           0           0           0           0           0           0
           0           0           0           0           0           1
           0           0           0           0           0           0
           0           0           0           0           0           0
           0           0           0           0           0           0
           0           0           0           0           0           0
           0           0           0           0
Num RLSW                                   I               52
RLSW                                       R   N=          52
  1.00000000E+00  1.00000000E+00  1.00000000E+00  1.00000000E+00  1.00000000E+00
  0.00000000E+00  0.00000000E+00  1.00000000E+00  0.00000000E+00  0.00000000E+00
  0.00000000E+00  0.00000000E+00  1.00000000E+00  0.00000000E+00  0.00000000E+00
  0.00000000E+00  0.00000000E+00  1.00000000E+00  0.00000000E+00  0.00000000E+00
  0.00000000E+00  0.00000000E+00  1.00000000E+00  0.00000000E+00  0.00000000E+00
  0.00000000E+00  0.00000000E+00  1.00000000E+00  0.00000000E+00  0.00000000E+00
  0.00000000E+00  0.00000000E+00  1.00000000E+00  0.00000000E+00  0.00000000E+00
  0.00000000E+00  0.00000000E+00  0.00000000E+00  1.00000000E+00  1.00000000E+00
  0.00000000E+00  1.00000000E+00  0.00000000E+00  0.00000000E+00  0.00000000E+00
  0.00000000E+00  0.00000000E+00  0.00000000E+00  0.00000000E+00  0.00000000E+00
  0.00000000E+00  0.00000000E+00
MxBond                                     I                3
NBond                                      I   N=           5
           1           2           3           1           1
IBond                                      I   N=          15
           2           0           0           1           3           0
           2           4           5           3           0           0
           3           0           0
RBond                                      R   N=          15
  1.00000000E+00  0.00000000E+00  0.00000000E+00  1.00000000E+00  1.00000000E-01
  0.00000000E+00  1.00000000E-01  1.00000000E+00  1.00000000E+00  1.00000000E+00
  0.00000000E+00  0.00000000E+00  1.00000000E+00  0.00000000E+00  0.00000000E+00
Virial Ratio                               R      1.999268183282638E+00
SCF Energy                                 R     -1.761089389992799E+02
Total Energy                               R     -1.761089389992799E+02
RMS Force                                  R      5.123304547365266E-05
RMS Density                                R      1.675734882831222E-09
NImag                                      I                0
Job Status                                 I                1
Nuclear derivative order                   I                2
External E-field                           R   N=          35
  0.00000000E+00  0.00000000E+00  0.00000000E+00  0.00000000E+00  0.00000000E+00
  0.00000000E+00  0.00000000E+00  0.00000000E+00  0.00000000E+00  0.00000000E+00
  0.00000000E+00  0.00000000E+00  0.00000000E+00  0.00000000E+00  0.00000000E+00
  0.00000000E+00  0.00000000E+00  0.00000000E+00  0.00000000E+00  0.00000000E+00
  0.00000000E+00  0.00000000E+00  0.00000000E+00  0.00000000E+00  0.00000000E+00
  0.00000000E+00  0.00000000E+00  0.00000000E+00  0.00000000E+00  0.00000000E+00
  0.00000000E+00  0.00000000E+00  0.00000000E+00  0.00000000E+00  0.00000000E+00
IOpCl                                      I                0
IROHF                                      I                0
Alpha Orbital Energies                     R   N=          54
 -2.62226374E+01 -2.05911474E+01 -1.54611168E+00 -1.39691038E+00 -7.66947161E-01
 -7.30016026E-01 -6.17344561E-01 -5.93739970E-01 -5.93332011E-01 -5.48905744E-01
  1.25513203E-01  1.94691916E-01  2.82291928E-01  5.33003428E-01  5.80687257E-01
  6.18475571E-01  9.45880943E-01  1.04812734E+00  1.06420086E+00  1.24864410E+00
  1.25700434E+00  1.26067158E+00  1.35119090E+00  1.47226682E+00  1.49509638E+00
  1.67148387E+00  1.67481960E+00  1.75831168E+00  1.89660296E+00  1.93351225E+00
  2.24286144E+00  2.36582199E+00  2.55070185E+00  2.63623162E+00  2.74397094E+00
  2.76843792E+00  3.48053127E+00  3.52635152E+00  3.69044322E+00  4.00411133E+00
  4.22376481E+00  4.28261195E+00  4.28261638E+00  4.56560014E+00  4.57763829E+00
  5.23588790E+00  5.30970911E+00  5.80491092E+00  6.21906671E+00  6.70649121E+00
  6.70916438E+00  7.26242616E+00  5.15363014E+01  6.87515169E+01
Alpha MO coefficients                      R   N=        2916
  5.47637827E-01  4.73500084E-01 -1.09302507E-03 -4.21953697E-07 -7.99013522E-05
  6.17583315E-03  3.29861523E-04  1.18087624E-07  2.33730958E-05 -5.07672755E-04
 -3.61002098E-06  1.08226828E-08  9.37012989E-07  4.13963052E-05 -1.09127154E-05
 -4.41328404E-09 -7.14808960E-05 -5.36077836E-08  1.34959886E-04  1.09075905E-04
  2.51947469E-04  4.23382391E-05  4.62445374E-08  6.13569983E-06  1.82046990E-07
 -2.82314435E-06 -1.34925676E-05  1.35902131E-08  2.00382527E-06  2.47983468E-05
  4.22414164E-05 -4.40032084E-08 -8.59659549E-06 -8.76143701E-05 -1.15889245E-04
  1.40251374E-08  3.60346521E-06  4.03417703E-06 -3.91762188E-07 -1.75845971E-09
  1.52066528E-06 -4.13352931E-09 -5.23197489E-06  2.47363719E-05 -4.37685676E-05
  1.57976387E-05  5.73662251E-08  2.88796665E-07 -5.22895249E-06  2.48880790E-05
 -4.38963743E-05  1.58001190E-05 -1.06994274E-07  2.66740558E-07  5.95984952E-08
 -6.98953314E-06  5.94934204E-06  6.82621698E-09  6.43052714E-07  6.59659659E-05
 -1.66248406E-05 -2.22228393E-08 -2.44409879E-06 -1.89591691E-04  8.42461009E-05
  4.07052715E-08  5.89971239E-06  8.37768061E-07  6.82557171E-07  7.80455694E-10
 -1.35444028E-06  6.03205125E-09 -1.76524658E-05  1.77660217E-04  1.23187757E-04
 -4.44794245E-05  2.53811647E-08  1.07684866E-06  5.51422560E-01  4.71663748E-01
 -1.30526620E-03  2.20271530E-06  9.46273159E-04  5.65024903E-03  4.95636618E-04
 -8.13690853E-07 -3.24339446E-04 -4.91564429E-04 -2.19426166E-04 -4.26689506E-08
  6.39015359E-05  7.48292022E-05  5.70730225E-05 -4.95188331E-08  5.76582608E-05
 -9.69354940E-08  1.91643228E-04  6.56093163E-05  6.56510491E-05  2.63805761E-05
  4.55771137E-05  4.18926118E-06  1.91612500E-04  6.62265994E-05  6.54543992E-05
  2.63691069E-05 -4.57329408E-05  4.12975156E-06 -1.20955294E-01 -2.02962851E-01
 -2.93338862E-02 -1.12935664E-05 -2.08879247E-03  5.97391243E-01 -4.97130074E-02
 -1.87767684E-05 -3.51557216E-03  4.39097270E-01 -1.98731900E-02 -6.21900126E-06
 -1.18544728E-03 -3.81014731E-03  9.76026198E-04  4.06125667E-07  6.62968806E-03
  5.17980028E-06  9.32748013E-02  5.59045524E-02 -1.20675947E-02  3.19300516E-02
  1.28653728E-05  2.32624962E-03 -4.31177340E-03 -7.06951859E-03  1.71060313E-03
  5.56908017E-07  5.50999055E-04  1.84236095E-02 -1.01597027E-03  5.25732482E-06
  1.40635998E-03  1.88514901E-02  1.00043595E-02  6.85268593E-06  1.89927036E-04
 -3.69678913E-04 -5.10224679E-05  8.40066376E-07 -9.20307826E-05 -1.09246368E-07
  3.01977568E-03  1.26846099E-03  2.32591894E-03 -6.51353857E-04  7.84688520E-04
 -2.74772232E-04  3.02290013E-03  1.24478994E-03  2.33624565E-03 -6.57021334E-04
 -7.80860098E-04 -2.71280270E-04  6.03062942E-03  1.01657485E-02 -8.76934580E-04
  3.29022403E-07  2.88263151E-05 -3.06193492E-02 -1.36552978E-03  5.09923272E-07
  1.69324898E-05 -2.14345331E-02 -2.05995742E-03  2.95553834E-07  2.89184427E-06
 -8.26323020E-05  3.98231622E-06 -6.43485031E-09  1.42099450E-04 -9.80466677E-08
  9.73570264E-04  9.22181758E-04 -8.66696357E-04 -2.88056966E-03 -1.04826968E-06
 -8.92037664E-05 -1.13797927E-01 -1.90124913E-01 -2.92809616E-02  5.02427412E-05
  2.01131478E-02  5.39843861E-01 -4.79274015E-02  8.41936490E-05  3.36184147E-02
  3.77920907E-01 -9.06842754E-03  3.47352838E-05  1.16005723E-02 -5.67554801E-03
 -5.43246364E-03  4.02232514E-06 -3.23653293E-03  8.51010207E-06  9.50963615E-02
  7.88291111E-02 -3.60142390E-03  1.15207791E-02  2.41725653E-02 -7.78437945E-03
  9.50988295E-02  7.88123120E-02 -3.60065979E-03  1.14508979E-02 -2.42082644E-02
 -7.76593490E-03  3.15308026E-05  5.34766719E-05 -2.18280036E-04  4.50019071E-03
 -1.50899850E-05 -1.63629503E-04 -3.25873065E-04  6.35402257E-03 -2.26268532E-05
 -2.41469108E-04 -2.37826183E-04  6.79320483E-03 -1.64679442E-05 -7.96613092E-06
  2.06320369E-06 -1.06708995E-05  1.39927382E-05 -2.72292892E-04  1.55608716E-04
  2.03809011E-04  1.21016732E-05  3.17856012E-05  1.69852169E-03  3.73593717E-06
 -3.05276402E-06 -4.98944863E-06  3.96472332E-04  2.29561886E-01 -9.17765754E-05
  1.07240016E-05  6.05723027E-04  3.53276079E-01 -1.40188814E-04  5.98269896E-05
  4.24390426E-04  2.22388576E-01 -8.88776625E-05 -9.06849509E-06  3.40704839E-05
  1.60001598E-02 -7.13652844E-05 -2.32159616E-02 -1.50591625E-01 -2.00706165E-01
 -4.56873405E-02 -2.10922893E-02 -1.89835252E-02  1.29241319E-02  1.50534025E-01
  2.00634257E-01  4.56841383E-02  2.10421115E-02 -1.90345618E-02 -1.29095146E-02
 -2.85419189E-02 -4.84070595E-02  2.40660577E-01  1.01771049E-04  1.77115709E-02
  1.47882198E-01  3.58456925E-01  1.51251051E-04  2.63944875E-02  2.40328400E-01
  2.63810328E-01  1.13483971E-04  1.94241737E-02  8.23470636E-03 -2.11538273E-03
 -8.41870107E-07 -1.44096956E-02 -1.16519926E-05 -1.60148966E-01 -2.19782863E-01
 -1.07954388E-02 -4.23677280E-02 -1.80253462E-05 -3.41946676E-03  6.29471230E-03
  1.06012979E-02 -8.32609551E-02  3.44345416E-04  1.81847916E-02 -3.03995889E-02
 -1.23049395E-01  5.23506574E-04  2.65425954E-02 -7.47998036E-02 -1.16232280E-01
  3.59737106E-04  1.77337170E-02 -1.50304922E-03 -4.19477759E-03  2.04891962E-05
  6.60721211E-04 -2.98585026E-05  2.95343965E-02  4.43874727E-02  1.91458008E-03
 -1.56722267E-03  9.22475965E-03 -1.12791183E-03  2.98358224E-02  4.48262235E-02
  2.00664516E-03 -1.55140380E-03 -9.26127704E-03 -1.15097862E-03 -5.17413769E-03
 -8.89963611E-03  1.03050163E-01  7.67340675E-05 -6.51160948E-03  2.95919969E-02
  1.52883363E-01  1.13904756E-04 -9.35684831E-03  5.09402839E-02  1.19854811E-01
  9.94483769E-05 -1.20481126E-02  2.83294621E-03 -1.47198188E-04 -2.36427060E-07
 -4.88760030E-03 -5.38533919E-06 -4.69911746E-02 -7.62707624E-02  3.84494221E-02
 -2.50271192E-02 -7.07288564E-06 -3.85294195E-03 -3.45458061E-02 -5.87534826E-02
  1.98924477E-01 -3.20137167E-04 -1.38443855E-01  1.76876244E-01  3.00511583E-01
 -4.78428978E-04 -2.06297428E-01  3.00019172E-01  2.68702545E-01 -4.15557378E-04
 -1.88472927E-01  2.21782009E-03  1.39106169E-02 -1.95539552E-05 -3.82352703E-03
  1.75570100E-05 -8.21249245E-02 -1.23412767E-01 -3.21443827E-02  5.89040216E-03
 -2.61187819E-02 -5.61311546E-03 -8.21232889E-02 -1.23422996E-01 -3.21995552E-02
  5.95683445E-03  2.61007408E-02 -5.62871688E-03 -2.83035052E-04 -4.63172766E-04
 -1.35157038E-02  4.05255307E-04  3.06204907E-01  1.01548520E-03 -1.99715402E-02
  6.01157898E-04  4.54080454E-01  7.15120494E-03 -2.36375728E-02  5.84357399E-04
  4.42163479E-01 -1.14801481E-03 -1.10813014E-02 -5.08008578E-06  4.52926863E-04
 -1.46484785E-05 -4.08952280E-03 -9.21008972E-03  1.44238247E-03 -5.20497412E-03
  4.00052848E-05  3.15166846E-02 -1.38805259E-03 -2.35978780E-03  2.49204085E-02
 -3.66641768E-05  1.76496088E-02  5.96933739E-03  3.64408365E-02 -5.41612363E-05
  2.51168454E-02  2.60644344E-02  3.28546543E-02 -2.94221615E-05  3.92958577E-02
  1.00855429E-03  2.92877932E-04  5.53475998E-07 -9.54139759E-04  4.22993353E-06
 -3.73538386E-03 -1.76694311E-02  2.52699485E-03  9.53029568E-04 -3.49478417E-03
  1.50350138E-03 -3.74440082E-03 -1.77139508E-02  2.56976757E-03  9.60801413E-04
  3.49450497E-03  1.50456388E-03  1.29306098E-06  2.42254127E-06 -1.15061424E-04
  3.08299411E-01 -4.10036814E-04 -1.23597139E-05 -1.69887760E-04  4.57244554E-01
 -6.07991166E-04  1.40482320E-05 -1.71775790E-04  4.45766527E-01 -5.92727579E-04
  8.55038399E-07  1.51757217E-05 -7.71165301E-04  8.73179323E-06 -1.12017029E-02
  8.50924238E-06 -2.02848677E-06 -3.15420428E-05 -6.04446644E-06  3.17755860E-02
 -4.22121510E-05  7.47522087E-06  1.27589413E-05 -5.02872852E-05 -5.11302092E-03
  1.27053206E-05 -3.73510336E-05 -7.59506146E-05 -7.50040744E-03  2.00532385E-05
 -8.52974851E-05 -3.00795903E-05  9.59683756E-03 -4.15258053E-06 -9.74202549E-07
 -1.68180135E-06  2.56475069E-04  1.40549772E-06  1.99941529E-04  2.48745138E-03
  2.18476754E-02 -1.45615606E-02  2.09393801E-03  1.35463307E-03 -1.52571460E-03
 -2.45912350E-03 -2.17835834E-02  1.46109140E-02 -2.08858759E-03  1.34509086E-03
  1.52410767E-03 -6.30563416E-04 -1.06073627E-03  4.39742798E-02 -8.26251855E-06
 -3.05995455E-02  3.20249224E-03  6.59197616E-02 -1.19618808E-05 -4.65146142E-02
  1.78501359E-02  4.82727272E-02 -1.79375843E-05 -4.34467560E-02  1.05603134E-03
  7.54717723E-04  4.24198538E-07 -1.68023728E-03 -6.97588199E-07 -1.30502140E-02
 -3.96189014E-02  2.23701502E-02 -1.07823920E-02 -7.14140888E-06 -1.64322875E-03
  1.26205467E-03  2.23241739E-03  1.50938160E-01 -1.28628530E-04  2.45395510E-01
 -1.00714431E-02  2.26751466E-01 -1.92501214E-04  3.69566769E-01  7.69043403E-03
  2.40745945E-01 -1.86510416E-04  3.91148916E-01  1.19917065E-02 -5.45458764E-03
  1.47387366E-05 -6.06819581E-03  1.63424283E-05  3.76536860E-04 -3.68953002E-03
 -2.56424244E-03  1.43757058E-02 -8.94863732E-04  2.54697513E-02  3.74041966E-04
 -3.70632835E-03 -2.60033997E-03  1.43739210E-02  8.74025907E-04  2.54721507E-02
 -6.37458183E-03 -1.10043389E-02 -2.83735312E-02  8.00438507E-06  4.19418827E-04
  3.60443539E-02 -4.14756739E-02  1.11341392E-05  5.83226217E-04  4.76719492E-02
 -3.20106446E-02  2.00920905E-05  1.61068129E-03  2.93706514E-04  1.64418785E-04
 -6.02397990E-08 -3.49735623E-04  1.27831578E-06 -1.33829333E-02  6.33061740E-02
 -1.45304663E-01  1.17012871E-02  1.09001731E-05  2.14887170E-03 -3.57432352E-02
 -5.88267834E-02 -5.16428035E-02  7.71326071E-05  3.75571888E-02  1.21457505E-01
 -8.11648353E-02  1.30368838E-04  6.07520887E-02  8.67885337E-01 -1.57740319E-01
  1.92534007E-04  1.07921421E-01 -1.92980321E-03 -4.50526371E-03  4.54805849E-06
 -2.52663922E-04 -6.76356358E-08 -3.59431303E-02  3.61149448E-02 -8.06742682E-01
 -1.57176577E-03  4.35503597E-03  1.91668825E-03 -3.59322884E-02  3.61227681E-02
 -8.06388979E-01 -1.57844314E-03 -4.35338557E-03  1.91672941E-03  5.38115493E-06
  9.75553904E-06  1.59962817E-05 -8.84877001E-03 -4.24440277E-06 -4.42629792E-05
  1.38123088E-05 -1.46524434E-02 -6.23521411E-06  6.53140213E-05 -1.37044000E-05
 -1.07611194E-02 -1.25856795E-05 -1.51993443E-06 -1.26835158E-07  1.28346711E-04
  1.25474885E-06 -6.86033331E-04  4.17949268E-07 -1.60660229E-04 -8.71039668E-05
 -2.33467720E-05 -7.70117434E-04 -2.92745163E-06  8.56545158E-07  1.29734395E-06
 -1.49467622E-04 -1.21169477E-01  3.62827786E-05  2.17215984E-06 -1.63513370E-04
 -1.33168203E-01  3.75163776E-05 -7.55926366E-05 -6.19473882E-04 -4.93489442E-01
  1.50444764E-04  3.41228255E-06 -3.65577435E-06 -2.61184492E-03  8.49934766E-06
  3.19448287E-03 -2.55305083E-02  1.10315430E-01 -1.55205554E+00  7.42407378E-03
  9.52808313E-03 -4.78108810E-03  2.55354648E-02 -1.10311594E-01  1.55225564E+00
 -7.39621970E-03  9.55295438E-03  4.77459442E-03  3.02890176E-02  5.03020112E-02
  5.73214404E-02  4.42512176E-05  6.60432205E-03 -1.20443682E-01  7.33052921E-02
  6.65516504E-05  9.54529941E-03 -6.31572507E-01  1.37186568E-01  7.43432292E-05
  1.24279104E-02  1.54876203E-03 -1.54686214E-04 -1.76090503E-07 -2.62714044E-03
  1.17082117E-07  6.33814302E-02 -3.06626975E-01  1.76942429E+00 -1.37671369E-02
 -9.95815657E-06 -2.02299666E-03  8.47494206E-03  1.52542178E-02 -8.80274571E-02
  1.24124668E-04  1.26638188E-02 -6.20564505E-02 -1.15660120E-01  1.66067124E-04
  1.85405696E-02 -1.32423440E-02 -3.20876557E-01  3.11406405E-04  3.53191941E-02
 -3.08251913E-03 -3.10381298E-03 -2.68372156E-06  7.22834482E-03 -3.29449764E-06
 -4.91765368E-03  4.22388961E-02 -3.98956978E-01  3.43450582E-03  3.98651978E-03
 -2.99608652E-04 -5.00463234E-03  4.23521912E-02 -4.00129816E-01  3.47280885E-03
 -3.99398245E-03 -3.11984329E-04  3.47871422E-05  6.36813200E-05  2.71235541E-04
 -2.10602317E-02  2.67948808E-05 -2.55208589E-04  4.67602447E-04 -5.45935666E-02
  5.77334940E-05 -4.21504060E-04  9.24490448E-04  1.63125238E-02  5.98826789E-05
 -1.06958814E-05  1.67719471E-06  9.62109657E-05  1.70975387E-05 -1.17833648E-03
  1.89250764E-04  2.53826284E-03 -1.87937633E-03 -4.16615195E-05  4.33503860E-02
 -4.38637123E-05  2.86869626E-05  5.24646656E-05  1.44001752E-04  1.12314326E-01
 -5.98225934E-05 -2.16529706E-04  2.44021425E-04  1.71565626E-01 -9.08219689E-05
 -2.06837305E-04  2.02195703E-03  1.20932370E+00 -5.89178869E-04 -2.03796118E-05
 -1.55019473E-05 -5.84436130E-03  5.21474807E-05  1.17425284E-02  8.11514787E-02
  1.49747109E+00 -7.13238036E-01  4.11450019E-03  3.19573846E-02 -2.93874890E-03
 -8.11053255E-02 -1.49627424E+00  7.13077363E-01 -4.12380371E-03  3.19351049E-02
  2.90541657E-03  3.32222783E-03  5.89833233E-03  1.41151300E-02  3.46777592E-05
  1.09892864E-02 -1.89372937E-02  2.58873483E-02  7.86681604E-05  2.85784837E-02
 -7.47184539E-02  6.93708483E-02  7.58061915E-06 -4.44713371E-03  1.18794279E-04
  4.59029786E-04 -2.90589868E-07 -1.04953628E-04  3.04187245E-06  2.50598591E-02
  1.16740139E-01  3.50625692E-02  2.02674040E-02 -5.90894566E-06 -2.09454624E-02
  3.54453836E-02  6.26910056E-02  6.26395219E-02 -1.73905159E-04 -4.49738541E-02
 -1.55698447E-01  1.08249848E-01 -2.99300037E-04 -8.34150346E-02 -1.45708223E+00
  9.22187569E-01 -2.07860417E-03 -5.80352985E-01 -5.91210056E-03  3.26763443E-03
 -7.12514972E-06 -1.05607507E-02  2.40325667E-05  6.84332630E-02  1.83276363E+00
 -6.19545391E-01  3.50218007E-02  4.41565551E-02 -2.42970289E-02  6.85154110E-02
  1.83434605E+00 -6.20418308E-01  3.48928219E-02 -4.42922653E-02 -2.42552512E-02
  2.03393395E-02  3.53759688E-02  1.48010935E-01  9.33972648E-05  9.53268803E-03
 -9.78377400E-02  2.35194220E-01  1.87011634E-04  1.33461081E-02 -6.26376879E-01
  8.14516489E-01  2.97509284E-04  6.33247068E-02 -5.54091956E-03  1.34998544E-03
  4.61779699E-07  9.70717570E-03  9.39826668E-06  1.19640467E-01  2.08338479E+00
 -1.00206181E+00  1.58562886E-02 -7.98361119E-05  4.58279377E-03  1.41709390E-02
  2.70463020E-02 -7.38941489E-02 -1.64094382E-04  1.85824038E-03 -1.56773202E-01
 -1.42940738E-01 -2.45262965E-04  9.38674088E-03  3.80500371E-01 -6.20854609E-02
 -1.82307719E-03  8.15753054E-02 -1.78505849E-02 -4.53108606E-03  1.68126913E-05
  2.39661496E-02 -3.96987076E-05 -3.19498810E-03 -2.20168348E-01  8.39515284E-02