[Molden Format]
[Molpro variables]
_NUMVAR=  1094.000000000000    
_AVOGAD= 0.6022140760000000E+24
_BOLTZ= 0.1380649000000000E-22
_CLIGHTSI=  299792458.0000000    
_JOULE= 0.4359744722207100E-17
_JPCAL=  4.184000000000000    
_PLANCK= 0.6626070150000000E-33
_BOHR= 0.5291772109030000E-10
_ECHARG= 0.1602176634000000E-18
_ENULL= 0.8854187812800001E-11
_MU= 0.1660539066600000E-26
_EMASS= 0.9109383701500001E-30
_AMU2AU=  1822.888486217313    
_CLIGHT=  29979245800.00000    
_EV= 0.3674932217565494E-01
_KJOULE= 0.3808798847133432E-03
_KJOULE/MOL= 0.3808798847133432E-03
_CM= 0.4556335252912009E-05
_CM-1= 0.4556335252912009E-05
_DEB2SI= 0.3335640951981520E-29
_KCAL= 0.1593601437640628E-02
_KCAL/MOL= 0.1593601437640628E-02
_KELVIN= 0.3166811563455608E-05
_HERTZ= 0.1519829846057038E-15
_HZ= 0.1519829846057038E-15
_TOA= 0.5291772109030000    
_TOANG= 0.5291772109030000    
_TORAD= 0.1745329251994330E-01
_TOCM=  219474.6313631965    
_TODEBYE=  2.541746473194078    
_TOE= 0.4803204712570263E-09
_TOEV=  27.21138624598803    
_TOHERTZ=  6579683920501656.    
_TOHZ=  6579683920501656.    
_TOK=  315775.0248040668    
_TOKCAL=  627.5094740630558    
_TOKELVIN=  315775.0248040668    
_TOKJ=  2625.499639479825    
_TOKJOULE=  2625.499639479825    
_TOKG= 0.1660539066600000E-26
_ANG=  1.889726124625770    
_ANGSTROM=  1.889726124625770    
_RPAREF=  0.000000000000000    
_RPADISS=  0.000000000000000    
_IGNORE_UNDEF=  2.000000000000000    
_STRICTCHECK=  0.000000000000000    
!SEWARD=  0.000000000000000    
!MULTI=  0.000000000000000    
!DFMULTI=  0.000000000000000    
!NUMHESS=  0.000000000000000    
_SEW_ONEEL=  0.000000000000000    
_CPPDONE=FALSE
_DKROLL_DONE=  0.000000000000000    
_FNUC_DONE=  0.000000000000000    
_FOCKDONE=TRUE
_GRADONE=FALSE
_HESSDONE=TRUE
_INTDONE=TRUE
_SCFDONE=TRUE
_MODUL_BLOCK=FALSE
_MODUL_SLATER=TRUE
_MODUL_MRCC=FALSE
_MODUL_NBO6=FALSE
_MODUL_NECI=FALSE
_MODUL_AIMS=TRUE
_MODUL_HDF5=FALSE
_MODUL_GECCO=FALSE
_ISWINDOWS=FALSE
_MRCC_EXEC=
_FITC_AO_SAVED=FALSE
_FITC_MO_SAVED=FALSE
_LSTYP=SEWARD
_INTYP=INTS
_GEOMTYP=XYZ
_GRADTYP=ALASKA
_DIRECT=FALSE
_DKHO= -1.000000000000000    
_FNUC=  0.000000000000000    
_SYNCM=  0.000000000000000    
_BASIS=6-311G(D,P)
_ZCENTRE=MASS
_ZORIENT=  1.000000000000000    
_NELEC=  26.00000000000000    
!SPIN=  0.000000000000000    
_OPTCONV= 0.3911124756611828E-02
_QSDSTEP=  0.000000000000000    
_QSDIRC=  0.000000000000000    
_PROGRAM=FREQ
_CPUSTEP=  27.69000000000000    
_SYSSTEP=  1.690000000000000    
_WALLSTEP=  29.39000000000000    
!DFSCF=  0.000000000000000    
!SCSGRD=  0.000000000000000    
_NCEN=  9.000000000000000    
_CPUTOT=  42.94000000000000    
_DFTEXFAC=  1.000000000000000    
_DMX= 0.3046085936391690E-01
_DMY= 0.4952090750105407    
_DMZ= 0.4929601897685778    
_DMX_SCF= 0.3046085936391690E-01
_DMY_SCF= 0.4952090750105407    
_DMZ_SCF= 0.4929601897685778    
_FREQUENCIES= 0.5608181567531485E-04
_HOMO=  13.10000000000000    
_EHOMO=-0.4382804255276772    
_LUMO=  14.10000000000000    
_ELUMO= 0.1523782902562590    
_ENERGY= -154.1255589571874    
_ENERGY_METHOD=HF
_ENERGY_BASIS=6-311G(D,P)
_GEOMETRY_METHOD=HF
_GEOMETRY_BASIS=6-311G(D,P)
_ENUC=  82.32950201760350    
_GRADENERG= -154.1255583218488    
_GRADEXFAC=  9999.000000000000    
_GRADMETHOD=  1.000000000000000    
_NMRMETHOD=  0.000000000000000    
_NMRMAGNET=  0.000000000000000    
_VIRIAL= 0.5089240406133982E-03
!GRID_FREEZE= -1.000000000000000    
!NEESE_INDEX=  0.000000000000000    
_ITERATIONS=  11.00000000000000    
_LASTNELEC=  26.00000000000000    
_LASTSPIN=  0.000000000000000    
_LASTSYM=  1.000000000000000    
_MPP_PROG=  0.000000000000000    
_MSNSTATES=  0.000000000000000    
_RS2PHASE=  0.000000000000000    
_NPROC_MPP=  1.000000000000000    
_NPROC_SMP=  6.000000000000000    
_NUMSTEP=  0.000000000000000    
_OPTCONVMX= 0.1955096860862263E-02
_OPTCONVRMS= 0.8534773928375923E-03
_OPTGRAD= 0.5416543503171536E-03
_OPTGRADMX= 0.2646363531484651E-03
_OPTGRADRMS= 0.1181986695633564E-03
!GMAXLAST= 0.2646363531484651E-03
!DMAXLAST= 0.1955096860862263E-02
!DELAST= 0.9662461764037289E-05
_OPTSTEP=  4.000000000000000    
_ORBITAL=  2100.200000000000    
_PI=  3.141592653589793    
_SEIG_MIN= 0.3271302351081941E-02
_SEWPROP=TRUE
_STATUS=  1.000000000000000    
_SYSTOT=  2.990000000000000    
_VERSION=  2024001.000000000    
_WALLTOT=  45.94000000000000    
_ZPE= 0.8528155348160073E-01
_DATE=22-Sep-24
_LASTORB=0
_OUTPUT=/home/lme/Theoretische_Chemie/Nomodeco/pubchempy_integration/ethanol.molpro/run/ethanol_1.molpro/ethanol_1.out
_PGROUP=C1
_TIME=19:33:25
_LIBMOL=/usr/local/molpro/molpro_2024.1.0_sockets/lib/
_VIGRDC=  0.000000000000000    
!VIBCNT=  0.000000000000000    
!SURFREC=  0.000000000000000    
!XSURFREC=  0.000000000000000    
!XPOLYREC=  0.000000000000000    
!ROTREC=  0.000000000000000    
!POLYREC=  0.000000000000000    
!DIPREC=  0.000000000000000    
!DIP4DREC=  0.000000000000000    
!DIPROT=  0.000000000000000    
!DIP4DROT=  0.000000000000000    
!PTREC=  0.000000000000000    
!PT4DREC=  0.000000000000000    
!VSCFREC=  0.000000000000000    
!VCIREC=  0.000000000000000    
!PVCIREC=  0.000000000000000    
!VMP2REC=  0.000000000000000    
!VMCSCFREC=  0.000000000000000    
!VMRCIREC=  0.000000000000000    
!VIBSTATEREC=  0.000000000000000    
!VIBSTATECNT=  0.000000000000000    
!VIBINFO=  0.000000000000000    
!GAREC=  0.000000000000000    
!SCFORB=  21002.00000000000    
!DEFCORE=  3.000000000000000    
!SCORE=  0.000000000000000    
!NEWMOL=  0.000000000000000    
!NEWSYM=  0.000000000000000    
_SLFILES=slscratch
_NGSSTO=  9.000000000000000    
_SIN=SIN
_COS=COS
_TAN=TAN
_ACOS=ACOS
_ASIN=ASIN
_ATAN=ATAN
_COSH=COSH
_SINH=SINH
_TANH=TANH
_ABS=ABS
_MOD=MOD
_ERF=ERF
_REFC=REFC
_ERFC=ERFC
_HYPOT=HYPOT
_J0=J0
_J1=J1
_JN=JN
_GAMMA=GAMMA
_LGAMMA=LGAMMA
_Y0=Y0
_Y1=Y1
_YN=YN
_EXP=EXP
_LOG=LOG
_LOG10=LOG10
_SQRT=SQRT
_INT=INT
_NINT=NINT
_MAX=MAX
_MIN=MIN
_COSMO=  0.000000000000000    
_COSMOIT=  0.000000000000000    
_COSMOES=  0.000000000000000    
_COSMOEDS=  0.000000000000000    
_COSMOEC=  0.000000000000000    
_COSMOEDCORR=  0.000000000000000    
_FEPSI=  1.000000000000000    
_SL_IsMM=  0.000000000000000    
_SL_NSYM=  1.000000000000000    
_SL_System_BitSw=  0.000000000000000    
_SL_Unique_atoms=  0.000000000000000    
_SL_GRAD=  0.000000000000000    
_SL_MAXUPD_Hess=  5.000000000000000    
_SL_N_PRINT_COD=  5.000000000000000    
_SL_PRINT_CODES=  0.000000000000000    
_SL_BasType=  0.000000000000000    
_SL_Energy_Pred=  0.000000000000000    
_SL_New_Coords=  0.000000000000000    
_SL_Total_Nuclea=  0.000000000000000    
_SL_Highest_Mltp=  0.000000000000000    
_SL_Ref_Geom=  0.000000000000000    
_SL_Symmetry_ope=  1.000000000000000    
_SL_agrad=  0.000000000000000    
_SL_GrdMax=  0.000000000000000    
_SL_GrdNorm=  0.000000000000000    
_SL_GrdRMS=  0.000000000000000    
_SL_Hss_Q=  0.000000000000000    
_SL_Hss_X=  0.000000000000000    
_SL_BMxOld=  0.000000000000000    
_SL_KtB=  0.000000000000000    
_SL_TROld=  0.000000000000000    
_SL_No_of_Intern=  0.000000000000000    
_SL_Hess=  0.000000000000000    
_SL_K=  0.000000000000000    
!LATTICE= -1.000000000000000    
!NEWLATTICE=  0.000000000000000    
!LATGRAD_VAR=FALSE
!SEW_LATTICE=  1.000000000000000    
!AIC_ONEEL=  0.000000000000000    
!LOCAL=  0.000000000000000    
!SAVEDOM= -1.000000000000000    
!RESTDOM= -1.000000000000000    
!SAVEDOM_HF= -1.000000000000000    
!RESTDOM_HF= -1.000000000000000    
!HESSREC=  5300.200000000000    
!FREQREC=  5400.200000000000    
!NMODREC=  5450.200000000000    
!GTASKS=  0.000000000000000    
!HTASKS=  0.000000000000000    
!SAVEDOM_EOM= -1.000000000000000    
!RESTDOM_EOM= -1.000000000000000    
!GRADSTATE= -1.000000000000000    
!DEBUG=  0.000000000000000    
!CFIT_CPHF=  0.000000000000000    
!RDOMAUX_CPHF=  0.000000000000000    
!THRAO_CPHF= 0.1000000000000000E-11
!THRMO_CPHF= 0.1000000000000000E-11
!THROV_CPHF= 0.1000000000000000E-13
!THRSW_CPHF= 0.1000000000000000E-11
!THRPROD_CPHF= 0.1000000000000000E-11
!THRAOPR_CPHF= 0.1000000000000000E-11
!CFIT_SCFGRD=  0.000000000000000    
!RDOMAUX_SCFGRD=  0.000000000000000    
!THRAO_SCFGRD= 0.1000000000000000E-11
!THRMO_SCFGRD= 0.1000000000000000E-11
!THROV_SCFGRD= 0.1000000000000000E-13
!THRSW_SCFGRD= 0.1000000000000000E-11
!THRPROD_SCFGRD= 0.1000000000000000E-11
!THRAOPR_SCFGRD= 0.1000000000000000E-11
!LOCFIT_SCF=  0.000000000000000    
!LOCFIT_MP2=  0.000000000000000    
_RIDOM=  0.000000000000000    
!CC2_METHOD=  0.000000000000000    
_BASIS2006=FALSE
_SVDDEL= -1.000000000000000    
_SVDDELA= -1.000000000000000    
_SVDDELP= -1.000000000000000    
_SVDDELF= -1.000000000000000    
_SVDDELS= -1.000000000000000    
_SVDDEL_ABS= -1.000000000000000    
_SVDDELA_ABS= -1.000000000000000    
_SVDDELP_ABS= -1.000000000000000    
_SVDDELF_ABS= -1.000000000000000    
_SVDDELS_ABS= -1.000000000000000    
_MAXBASIS=  0.000000000000000    
!OPT_CONICAL=  0.000000000000000    
!CLEARSP_JGRID=  0.000000000000000    
_GRDHYBR=  0.000000000000000    
_STATEGRAD=  1.000000000000000    
_4EXT_NDISKS=  1.000000000000000    
!EMBEDFLAG=  1.000000000000000    
!EMBED=FALSE
!EMBED_F12=FALSE
!EMBEDNUC=  0.000000000000000    
_EMBEDENERGY=  0.000000000000000    
!EMBED_DFC=FALSE
!NUM_VOIDS=  0.000000000000000    
_IBODY=  0.000000000000000    
_EMBE_CORR=  0.000000000000000    
!EMBED_PROJ=FALSE
!EMB_PROJ_ZMU=  1000000.000000000    
!CORRECTION_HF=  0.000000000000000    
!EMBED_AORB=  0.000000000000000    
!EMBED_NACORR=  0.000000000000000    
!EMBED_MP2=FALSE
!EMBED_TRUNC_PERTURBATION=FALSE
!EMBED_FROZEN=  0.000000000000000    
!EMBED_ACTIVE=  0.000000000000000    
_CHANGE_BASIS=FALSE
_RESTORE_BASIS=FALSE
_FIX_EMBED_GUESS=FALSE
_EMBED_SCF=FALSE
_NEOBAS=FALSE
_NEOOVE=FALSE
_PRINEO=FALSE
_HUZINAGA_T=FALSE
_HUZINAGA_F=FALSE
_HUZINAGA=FALSE
_HUZINAGA_CORRECT=FALSE
!FASTLATGRAD=  1.000000000000000    
!FASTVLAMBDA= -1.000000000000000    
!IFORCE= -1.000000000000000    
!USESYM= -1.000000000000000    
_SINDEX=  0.000000000000000    
_AVDOM_OSV=  0.000000000000000    
_AVDOM_PNO=  0.000000000000000    
_AVDOM_PNOCC=  0.000000000000000    
_AVDOM_TNO=  0.000000000000000    
_AVDOM_TNOIT=  0.000000000000000    
_AVDOM_PAO=  0.000000000000000    
_AVDOM_LMO=  0.000000000000000    
_CC2OSV_FLAG=  0.000000000000000    
_EOMCCSD_CONV=FALSE
_TMADC2_FLAG=FALSE
_PROPADC2_FLAG=FALSE
_LEN_VirQ=  0.000000000000000    
_GRDCC2LR_FLAG=FALSE
_GRDADC2_FLAG=FALSE
_RO_VGLOBAL=  0.000000000000000    
_OPT=FALSE
_FREQ=FALSE
_HESS=FALSE
_CMRCC_callName=EMPTY
_CMRCC_callCount=  0.000000000000000    
_GECCO_CIROOT=  1.000000000000000    
_SYM_CATION=  1.000000000000000    
_MON_A=FALSE
_MON_B=FALSE
_MAXGEOM=  100.0000000000000    
!MAXGEOM=  100.0000000000000    
_NCORE=  0.000000000000000    
_NLARGECORE=  0.000000000000000    
GX1= 0.2450896604872077    
GY1=-0.5840219074386310E-01
GZ1= -1.161135361651006    
GX2=-0.5597532881271864    
GY2= 0.3029675865453283E-01
GZ2=-0.1527715511663634E-01
GX3= 0.2505652427277704    
GY3=-0.1369031362821951E-01
GZ3=  1.270015422102626    
GX4= -1.168463951043159    
GY4= 0.9332634423069457    
GZ4=-0.4445670673085066E-01
GX5= -1.234702617468605    
GY5=-0.8154459696333104    
GZ5=-0.6005788942974541E-01
GX6=-0.4021286512822699    
GY6= 0.1033210081485190E-01
GZ6=  2.138531523205458    
GX7= 0.8479236018927743    
GY7=-0.9186359978670395    
GZ7=  1.309825560107320    
GX8= 0.9230983821098044    
GY8= 0.8390758005976309    
GZ8=  1.336129435602612    
GX9= 0.8259726710798719    
GY9= 0.6805654318429992    
GZ9= -1.191869917353641    
O1X1= 0.4631523342983367    
O1Y1=-0.1103641455840554    
O1Z1= -2.194227827138697    
C2X2= -1.057780411919120    
C2Y2= 0.5725257632095258E-01
C2Z2=-0.2886963913386783E-01
C3X3= 0.4734996851058649    
C3Y3=-0.2587094331756664E-01
C3Z3=  2.399981321824957    
H4X4= -2.208076853969705    
H4Y4=  1.763612308085611    
H4Z4=-0.8401100012411467E-01
H5X5= -2.333249792374241    
H5Y5= -1.540969552036859    
H5Z5=-0.1134929626452757    
H6X6=-0.7599130177886317    
H6Y6= 0.1952484083209284E-01
H6Z6=  4.041238887737095    
H7X7=  1.602343382183557    
H7Y7= -1.735970444191008    
H7Z7=  2.475211579637385    
H8X8=  1.744403128272679    
H8Y8=  1.585623460930627    
H8Z8=  2.524918700339741    
H9X9=  1.560862134766562    
H9Y9=  1.286082276070935    
H9Z9= -2.252307719978732    
[Atoms] Angs
O     1    8         0.2450896605       -0.0584021907       -1.1611353617
C     2    6        -0.5597532881        0.0302967587       -0.0152771551
C     3    6         0.2505652427       -0.0136903136        1.2700154221
H     4    1        -1.1684639510        0.9332634423       -0.0444567067
H     5    1        -1.2347026175       -0.8154459696       -0.0600578894
H     6    1        -0.4021286513        0.0103321008        2.1385315232
H     7    1         0.8479236019       -0.9186359979        1.3098255601
H     8    1         0.9230983821        0.8390758006        1.3361294356
H     9    1         0.8259726711        0.6805654318       -1.1918699174
[GTO]
   1 0
 s    6  1.00
  0.8588500000D+04  0.1895150083D-02
  0.1297230000D+04  0.1438590063D-01
  0.2992960000D+03  0.7073200310D-01
  0.8737710000D+02  0.2400010105D+00
  0.2567890000D+02  0.5947970261D+00
  0.3740040000D+01  0.2808020123D+00
 s    3  1.00
  0.4211750000D+02  0.1138890124D+00
  0.9628370000D+01  0.9208111006D+00
  0.2853320000D+01 -0.3274470358D-02
 s    1  1.00
  0.9056610000D+00  0.1000000000D+01
 s    1  1.00
  0.2556110000D+00  0.1000000000D+01
 p    3  1.00
  0.4211750000D+02  0.3651139738D-01
  0.9628370000D+01  0.2371529830D+00
  0.2853320000D+01  0.8197019412D+00
 p    1  1.00
  0.9056610000D+00  0.1000000000D+01
 p    1  1.00
  0.2556110000D+00  0.1000000000D+01
 d    1  1.00
  0.1292000000D+01  0.1000000000D+01
  
   2 0
 s    6  1.00
  0.4563240000D+04  0.1966650249D-02
  0.6820240000D+03  0.1523060193D-01
  0.1549730000D+03  0.7612690966D-01
  0.4445530000D+02  0.2608010331D+00
  0.1302900000D+02  0.6164620782D+00
  0.1827730000D+01  0.2210060280D+00
 s    3  1.00
  0.2096420000D+02  0.1146600807D+00
  0.4803310000D+01  0.9199996477D+00
  0.1459330000D+01 -0.3030682134D-02
 s    1  1.00
  0.4834560000D+00  0.1000000000D+01
 s    1  1.00
  0.1455850000D+00  0.1000000000D+01
 p    3  1.00
  0.2096420000D+02  0.4024869267D-01
  0.4803310000D+01  0.2375939567D+00
  0.1459330000D+01  0.8158538515D+00
 p    1  1.00
  0.4834560000D+00  0.1000000000D+01
 p    1  1.00
  0.1455850000D+00  0.1000000000D+01
 d    1  1.00
  0.6260000000D+00  0.1000000000D+01
  
   3 0
 s    6  1.00
  0.4563240000D+04  0.1966650249D-02
  0.6820240000D+03  0.1523060193D-01
  0.1549730000D+03  0.7612690966D-01
  0.4445530000D+02  0.2608010331D+00
  0.1302900000D+02  0.6164620782D+00
  0.1827730000D+01  0.2210060280D+00
 s    3  1.00
  0.2096420000D+02  0.1146600807D+00
  0.4803310000D+01  0.9199996477D+00
  0.1459330000D+01 -0.3030682134D-02
 s    1  1.00
  0.4834560000D+00  0.1000000000D+01
 s    1  1.00
  0.1455850000D+00  0.1000000000D+01
 p    3  1.00
  0.2096420000D+02  0.4024869267D-01
  0.4803310000D+01  0.2375939567D+00
  0.1459330000D+01  0.8158538515D+00
 p    1  1.00
  0.4834560000D+00  0.1000000000D+01
 p    1  1.00
  0.1455850000D+00  0.1000000000D+01
 d    1  1.00
  0.6260000000D+00  0.1000000000D+01
  
   4 0
 s    3  1.00
  0.3386500000D+02  0.2549381454D-01
  0.5094790000D+01  0.1903731086D+00
  0.1158790000D+01  0.8521614860D+00
 s    1  1.00
  0.3258400000D+00  0.1000000000D+01
 s    1  1.00
  0.1027410000D+00  0.1000000000D+01
 p    1  1.00
  0.7500000000D+00  0.1000000000D+01
  
   5 0
 s    3  1.00
  0.3386500000D+02  0.2549381454D-01
  0.5094790000D+01  0.1903731086D+00
  0.1158790000D+01  0.8521614860D+00
 s    1  1.00
  0.3258400000D+00  0.1000000000D+01
 s    1  1.00
  0.1027410000D+00  0.1000000000D+01
 p    1  1.00
  0.7500000000D+00  0.1000000000D+01
  
   6 0
 s    3  1.00
  0.3386500000D+02  0.2549381454D-01
  0.5094790000D+01  0.1903731086D+00
  0.1158790000D+01  0.8521614860D+00
 s    1  1.00
  0.3258400000D+00  0.1000000000D+01
 s    1  1.00
  0.1027410000D+00  0.1000000000D+01
 p    1  1.00
  0.7500000000D+00  0.1000000000D+01
  
   7 0
 s    3  1.00
  0.3386500000D+02  0.2549381454D-01
  0.5094790000D+01  0.1903731086D+00
  0.1158790000D+01  0.8521614860D+00
 s    1  1.00
  0.3258400000D+00  0.1000000000D+01
 s    1  1.00
  0.1027410000D+00  0.1000000000D+01
 p    1  1.00
  0.7500000000D+00  0.1000000000D+01
  
   8 0
 s    3  1.00
  0.3386500000D+02  0.2549381454D-01
  0.5094790000D+01  0.1903731086D+00
  0.1158790000D+01  0.8521614860D+00
 s    1  1.00
  0.3258400000D+00  0.1000000000D+01
 s    1  1.00
  0.1027410000D+00  0.1000000000D+01
 p    1  1.00
  0.7500000000D+00  0.1000000000D+01
  
   9 0
 s    3  1.00
  0.3386500000D+02  0.2549381454D-01
  0.5094790000D+01  0.1903731086D+00
  0.1158790000D+01  0.8521614860D+00
 s    1  1.00
  0.3258400000D+00  0.1000000000D+01
 s    1  1.00
  0.1027410000D+00  0.1000000000D+01
 p    1  1.00
  0.7500000000D+00  0.1000000000D+01


[MO]
 Sym=      1.1
 Ene=     -20.5406
 Spin= Alpha
 Occup=    2.000000
1 0.55144123437098
2 0.47166371542690
3 0.005665770327566
4 -0.000898107033310
5 0.000097575586101
6 0.001290886420534
7 0.001144156234553
8 -0.000045925511029
9 -0.000481961058925
10 -0.000407503213321
11 0.000192609205667
12 0.000141400364219
13 -0.000130048671795
14 -0.000002647773844
15 0.000031162917718
16 -0.000028515143874
17 -0.000079964354818
18 0.000139005583950
19 -0.000023451487293
20 -0.000002769224666
21 -0.000029958342143
22 0.000074282755508
23 0.000624994139208
24 0.000015954383742
25 -0.000015292736447
26 -0.000027439753506
27 0.000148433400680
28 0.000028651821203
29 -0.000202877751315
30 0.000119885360626
31 -0.000211215774042
32 -0.000253718326121
33 0.000014180620155
34 -0.000073414628563
35 0.000059234008408
36 0.000003970957335
37 -0.000113541367654
38 -0.000018393057064
39 0.000001289940133
40 0.000000610606300
41 -0.000002672094582
42 -0.000024930546290
43 0.000001668560858
44 -0.000000791006034
45 -0.000001534376384
46 0.000005933226218
47 0.000000098046169
48 0.000025307234497
49 -0.000000627676288
50 0.000093789025779
51 0.000032813838235
52 0.000009279744646
53 0.000005342757246
54 -0.000014622501892
55 -0.000008538307809
56 0.000009675404417
57 -0.000006981975376
58 0.000005747279496
59 -0.000035179542335
60 0.000011871235379
61 -0.000002753769263
62 0.000001453932531
63 0.000034352564796
64 0.000031732456468
65 -0.000165143913637
66 -0.000055396569986
67 -0.000002675942200
68 0.000011495627288
69 0.000007500934636
70 0.000004609315813
71 -0.000007364256007
72 0.000032893593093
73 -0.000002118911445
74 -0.000008096323650
75 -0.000007600285093
76 0.000004810905788
77 -0.000021148686020
78 0.000031011549963
79 0.000009851504061
80 -0.000008654472392
81 0.000012952579942
82 0.000007321933969
83 -0.000040305020789
84 -0.000058506956873
85 0.000012649118267
86 0.000006452642458
87 0.000006870551313
88 0.000216949049079
89 0.000049008458648
90 0.000081546941114
91 -0.000066403678940
92 -0.000034574850370
93 0.000054451882388
 Sym=      2.1
 Ene=     -11.2699
 Spin= Alpha
 Occup=    2.000000
1 -0.000072265861599
2 -0.000127119871014
3 0.000269616119088
4 0.000497436395878
5 -0.000059671472655
6 0.000013720603499
7 0.000092596057090
8 -0.000323554050231
9 0.000024672804045
10 0.000438179123266
11 -0.000104816746366
12 -0.000002316213109
13 0.000211246445098
14 -0.000013037704576
15 -0.000116509943353
16 0.000129547647929
17 -0.000035390375082
18 -0.000175158483870
19 0.000032269812665
20 0.56346057889213
21 0.46655241107652
22 0.004100941423599
23 -0.001974985411879
24 0.000627538772380
25 0.000007522357682
26 -0.000728628510909
27 -0.000509931620460
28 -0.000003653830718
29 0.000506643206320
30 -0.000070851716786
31 0.000054482257718
32 -0.000278124121494
33 0.000001816463867
34 0.000185205606644
35 -0.000187022070511
36 0.000044454050985
37 0.000165741686295
38 -0.000011426151383
39 0.003196659203482
40 0.002592849926864
41 0.000245730492675
42 0.000675752530543
43 -0.000081066075208
44 0.000005144251409
45 -0.000105384114550
46 -0.000123658417279
47 0.000006102620306
48 -0.000265704544660
49 -0.000187949759232
50 -0.000009781993835
51 -0.000270771408778
52 -0.000034780679224
53 -0.000062717647657
54 0.000097498326881
55 -0.000003166851584
56 0.000083191555834
57 -0.000004001719201
58 0.000329427604295
59 0.000199428788764
60 0.000261793703802
61 0.000036881269732
62 0.000005425860529
63 -0.000016204340210
64 0.000327344830110
65 0.000187667299574
66 0.000299263974823
67 0.000027519258322
68 -0.000022372512049
69 -0.000015801325081
70 0.000003485774005
71 -0.000013679052128
72 -0.000000052006928
73 -0.000006000949822
74 0.000002239610312
75 -0.000024299119136
76 0.000000262826330
77 -0.000025760349001
78 0.000012353311415
79 -0.000007844969379
80 0.000007573752737
81 -0.000006537643054
82 -0.000000162552473
83 -0.000015955731120
84 0.000022244990738
85 -0.000009887278170
86 -0.000007792210418
87 -0.000004812335006
88 -0.000018975841390
89 0.000050609793319
90 -0.000007928020778
91 -0.000038887709366
92 -0.000034435449879
93 0.000005845899171
 Sym=      3.1
 Ene=     -11.2150
 Spin= Alpha
 Occup=    2.000000
1 0.000002687628196
2 0.000005521700621
3 -0.000028961134171
4 0.000046130206324
5 -0.000000074502335
6 0.000000211182349
7 -0.000008209314909
8 -0.000010180968658
9 0.000002779555246
10 -0.000022187957715
11 0.000010435549045
12 0.000031761826361
13 0.000021463299885
14 -0.000001436286991
15 -0.000001456204061
16 0.000002892491052
17 0.000004171622138
18 -0.000003106488292
19 0.000000723105385
20 -0.003295918887887
21 -0.002786552437193
22 0.000221286676690
23 0.000559976156955
24 0.000083315835144
25 -0.000004451031968
26 0.000119608540694
27 0.000135206225499
28 -0.000006795938424
29 0.000244438196411
30 0.000146306685546
31 -0.000014464080346
32 0.000230468500651
33 -0.000012630325352
34 -0.000053329952213
35 0.000065960277565
36 0.000001823424538
37 0.000101756181288
38 -0.000000362205117
39 0.56331348198817
40 0.46653075405433
41 0.004518035472373
42 -0.001731483219006
43 0.000021238559657
44 0.000069040288593
45 0.000100076340632
46 0.000021033807810
47 -0.000057780483934
48 -0.000016433606381
49 0.000094297903728
50 0.000014397152904
51 0.000215157712748
52 -0.000000178007474
53 0.000028050141040
54 -0.000027872133566
55 -0.000017890602349
56 -0.000043322301113
57 0.000003624885277
58 -0.000003941447508
59 -0.000034547619187
60 0.000013540032808
61 0.000005321305718
62 -0.000001358751049
63 0.000006981762299
64 -0.000004998738855
65 -0.000036124211405
66 0.000019165030086
67 0.000006902028051
68 -0.000000556059818
69 0.000008478169268
70 0.000357773832913
71 0.000188590766412
72 0.000208276306763
73 -0.000001404754937
74 0.000001399211589
75 -0.000027681329110
76 0.000350888271086
77 0.000176916763443
78 0.000250867902395
79 -0.000008253794712
80 0.000002276155321
81 -0.000013044339090
82 0.000355784149632
83 0.000215629157034
84 0.000220312031165
85 -0.000023782840307
86 -0.000016397385094
87 -0.000020510815415
88 -0.000003688917507
89 -0.000055093803360
90 0.000016062658607
91 0.000009724872646
92 0.000003622602991
93 -0.000001433317825
 Sym=      4.1
 Ene=      -1.3633
 Spin= Alpha
 Occup=    2.000000
1 -0.10888474136289
2 -0.18183438980742
3 0.51450448718571
4 0.39064791351694
5 0.000418792464934
6 0.024915150250329
7 0.024977006979075
8 -0.000831940026359
9 0.042440290364402
10 0.044687915467582
11 -0.010770572911411
12 0.014681305636292
13 0.029832209980022
14 -0.000685823704964
15 -0.000076154578379
16 0.000761978283343
17 0.005417496026901
18 -0.005955904951822
19 0.002152734427605
20 -0.038483987346971
21 -0.063123533313459
22 0.16060935335671
23 -0.005313211107066
24 0.024374057534765
25 -0.000991685424987
26 -0.032231254687932
27 0.053393541140350
28 -0.001274121480435
29 -0.058305292319401
30 -0.004419643300047
31 0.006335534815034
32 0.003943735950103
33 0.001203421036559
34 -0.014794395341006
35 0.013590974304447
36 -0.000367026201640
37 -0.021951141017164
38 0.000646705514421
39 -0.008130970715587
40 -0.013388959612057
41 0.032809511653250
42 0.025890388820343
43 -0.001670641373712
44 0.000216748036844
45 -0.007319590268239
46 -0.007647055101696
47 0.000698053220008
48 -0.020994620391684
49 -0.003815940730836
50 -0.002232273705865
51 -0.008304380723410
52 -0.001830139258770
53 -0.002315936464000
54 0.004146075722770
55 0.000044231190327
56 0.005080737537073
57 -0.000264804498583
58 0.015606245319554
59 0.030964442312412
60 -0.002628687018567
61 0.005385073045575
62 -0.007434556170230
63 -0.000664972749992
64 0.015560703936966
65 0.034345554774426
66 -0.000204793607990
67 0.006064966197646
68 0.007010004125080
69 -0.000194535068016
70 0.002765913535158
71 0.004730638493013
72 -0.003122650129829
73 0.001439413339336
74 0.000103712048418
75 -0.001677139593539
76 0.004084738152975
77 0.005471944487667
78 -0.000239249709722
79 -0.000975412899239
80 0.001910889985988
81 -0.000829919745135
82 0.004065813837679
83 0.006719835859044
84 0.001685139686671
85 -0.001217914609517
86 -0.001758046796696
87 -0.000894044196630
88 0.090507736202449
89 0.074259202628560
90 -0.001908041742819
91 -0.017150246218468
92 -0.019406275764343
93 0.003271986882789
 Sym=      5.1
 Ene=      -1.0127
 Spin= Alpha
 Occup=    2.000000
1 0.028416488915667
2 0.047713956737502
3 -0.13755630480256
4 -0.12816893887463
5 -0.026620947115416
6 -0.015431448586257
7 0.031529049732653
8 -0.042977009421976
9 -0.025322264790489
10 0.050519199127508
11 -0.018587379204465
12 -0.008039482542805
13 0.024817912445639
14 -0.001465924772788
15 -0.004543191200253
16 0.006009115973041
17 -0.004006268813100
18 -0.003137251195507
19 0.001245899913556
20 -0.064087421183643
21 -0.10634716187546
22 0.27730249459213
23 0.16342779112198
24 0.002904885193784
25 -0.001971124003657
26 0.043121125961857
27 0.020592321637377
28 -0.003989545091832
29 0.072066670076594
30 0.004977050725026
31 0.005580453594884
32 0.025777111696535
33 -0.000961280529069
34 -0.004232936288282
35 0.005194216817350
36 -0.000177607706901
37 0.013241665490593
38 0.000362270544540
39 -0.083158809462998
40 -0.13705945055385
41 0.34632219520574
42 0.18677022228668
43 -0.013021006801006
44 0.000792545848040
45 -0.016099858481689
46 -0.029716462933362
47 0.001890842431124
48 -0.038077154939648
49 -0.005015773907725
50 -0.001176334937510
51 -0.000728327612135
52 0.000288589689907
53 -0.004908011813963
54 0.004619422124055
55 -0.000093861156727
56 0.007858862873007
57 -0.000414166929914
58 0.046705549248836
59 0.060088852357896
60 -0.004691140609768
61 0.006724456379518
62 -0.010637651666431
63 0.001943807104264
64 0.047851057427999
65 0.065916064632252
66 -0.001364002150875
67 0.008072914510823
68 0.010274706578478
69 0.002487608627866
70 0.061281633466962
71 0.081619653705690
72 -0.000879599269359
73 0.008953269968532
74 -0.000198732363889
75 -0.013321443757272
76 0.058640851408648
77 0.079420568326894
78 -0.003056688021828
79 -0.009070334275860
80 0.012926067370417
81 -0.001035316385118
82 0.058758640939725
83 0.080884752248861
84 0.000747576715932
85 -0.010157711212413
86 -0.011977967977189
87 -0.001838721702036
88 -0.045129183884103
89 -0.050248577938222
90 -0.006528424510781
91 0.006496035256514
92 0.008798175142435
93 0.001513533097589
 Sym=      6.1
 Ene=      -0.8516
 Spin= Alpha
 Occup=    2.000000
1 0.015182078898305
2 0.025463717838419
3 -0.072295477854998
4 -0.070551541789323
5 -0.083837494470041
6 -0.032932473987260
7 0.047637982565711
8 -0.13284852437674
9 -0.051786562022325
10 0.075585471626834
11 -0.074869074345932
12 -0.022035644656996
13 0.043514816792184
14 0.000772491741161
15 -0.007418287882577
16 0.006645796141416
17 -0.008197065222031
18 -0.008530219565585
19 0.001268308717061
20 -0.066090318164031
21 -0.11039598527972
22 0.29186837565469
23 0.19631840674791
24 -0.044178423489210
25 -0.007291051275524
26 -0.036228885264620
27 -0.060146150323494
28 -0.013159208779060
29 -0.073844596431956
30 -0.026414657938296
31 -0.000143112317164
32 -0.005901384003877
33 -0.002807872714738
34 0.005979365538665
35 -0.003171492823927
36 -0.000020344517850
37 -0.013524527865501
38 0.003467637324919
39 0.057649405094744
40 0.095316137252750
41 -0.23960122764649
42 -0.18764412000087
43 -0.029924093128611
44 -0.000970261652991
45 -0.037454143280028
46 -0.049842575108823
47 -0.001456851196185
48 -0.063759722986197
49 -0.016535377453266
50 -0.003235068445474
51 -0.015681444775772
52 -0.000360869969473
53 -0.007192134436306
54 0.007553004405779
55 -0.000411633556370
56 0.011919805359786
57 -0.000048172714192
58 0.070471030338573
59 0.10104199292958
60 0.008876606757564
61 0.006716833456639
62 -0.013978334744826
63 -0.000626342797037
64 0.079891870777783
65 0.11447302225450
66 0.010197217665459
67 0.008278132061415
68 0.014107116434829
69 0.000429421802307
70 -0.059074326317707
71 -0.081569498751186
72 -0.011458729879428
73 -0.008296841233752
74 0.000303482256733
75 0.007919223913253
76 -0.062503502236935
77 -0.083376202086858
78 -0.011095382188271
79 0.005706527259235
80 -0.010472169025866
81 -0.001494906799991
82 -0.066171265766894
83 -0.090050077460593
84 -0.011261902827302
85 0.006970399599766
86 0.010359457255538
87 -0.000286325176836
88 -0.075408078884308
89 -0.095264225628187
90 -0.017832299364852
91 0.007057429405158
92 0.014296738246856
93 0.001320363101887
 Sym=      7.1
 Ene=      -0.6908
 Spin= Alpha
 Occup=    2.000000
1 0.020620400929035
2 0.035102328310541
3 -0.10719338672155
4 -0.15873457671901
5 0.081275747106090
6 0.14669596842367
7 -0.034957012619209
8 0.12551726503159
9 0.22601846169986
10 -0.057019272796271
11 0.071951526886728
12 0.15473858669682
13 -0.032912147798219
14 -0.001901578738763
15 0.012518447045844
16 -0.010616868307081
17 0.007231005813209
18 0.005168669304014
19 0.006947239538777
20 -0.017494722428120
21 -0.028690430693356
22 0.070568161185718
23 0.095749360189201
24 -0.047495747807459
25 0.099871288896883
26 0.054194650492227
27 -0.079314157760589
28 0.16768496958436
29 0.093255509550091
30 -0.021117588417263