
 Working directory              : /tmp/lme/molpro.XLSgCLnsnN/
 Global scratch directory       : /tmp/lme/molpro.XLSgCLnsnN/
 Wavefunction directory         : /home/lme/wfu/
 Main file repository           : /tmp/lme/molpro.XLSgCLnsnN/

 id        : liedlgroup

 Nodes     nprocs
 sv1-c724     1
 GA implementation: MPI file
 GA implementation (serial work in mppx): MPI file

 Using customized tuning parameters: mindgm=1; mindgv=20; mindgc=4; mindgr=1; noblas=0; minvec=7
 default implementation of scratch files=df  


 Variables initialized (1042), CPU time= 0.00 sec
 
             orient,mass
             geometry=/home/lme/Theoretische_Chemie/Nomodeco/pubchempy_integration/ethanol.xyz
 Including file /home/lme/Theoretische_Chemie/Nomodeco/pubchempy_integration/ethanol.xyz
             mass, iso
             basis=6-311g(d,p)
             {hf
             start, atden}
             optg;
             {frequencies, symm=auto, print=0, analytical}
             put, molden, ethanol.molden
 Commands initialized (847), CPU time= 0.00 sec, 718 directives.
 Default parameters read. Elapsed time= 0.06 sec

 Checking input...
 Passed
1


                                         ***  PROGRAM SYSTEM MOLPRO  ***
                                       Copyright, TTI GmbH Stuttgart, 2015
                                    Version 2024.1 linked Wed Jan 31 11:42:09 2024


 **********************************************************************************************************************************
 LABEL *                                                                                                                                                                 
  (6 PROC) 64 bit serial version                                                         DATE: 22-Sep-24          TIME: 19:33:25  
 **********************************************************************************************************************************

 SHA1:             675817fde4514a4a933b69e420913a90cee4ef91
 **********************************************************************************************************************************

 Memory per process:        32 MW
 Total memory per node:     32 MW

 GA preallocation disabled
 GA check disabled

 Variable memory set to 32.0 MW

 ZCENTRE=MASS


 Geometry recognized as XYZ



 Using masses of most abundant isotopes

 **********************************************************************************************************************************
 SETTING BASIS          =    6-311G(D,P)


 Recomputing integrals since basis changed


 Using spherical harmonics

 Library entry O      S 6-311G               selected for orbital group  1
 Library entry O      P 6-311G               selected for orbital group  1
 Library entry O      D 6-311G*              selected for orbital group  1
 Library entry C      S 6-311G               selected for orbital group  2
 Library entry C      P 6-311G               selected for orbital group  2
 Library entry C      D 6-311G*              selected for orbital group  2
 Library entry H      S 6-311G               selected for orbital group  3
 Library entry H      P 6-311G**             selected for orbital group  3


 PROGRAM * SEWARD (Integral evaluation for generally contracted gaussian basis sets)     Author: Roland Lindh, 1990

 Geometry written to block  1 of record 700

 Orientation using atomic masses  
 Molecule type: Asymmetric top
 Rotational constants:       9.6456939      8.3823701     32.9314522 GHz

 Point group  C1  



 ATOMIC COORDINATES

 NR  ATOM    CHARGE       X              Y              Z

   1  O1      8.00    0.480041449   -0.116685833   -2.163991601
   2  C2      6.00   -1.114598927    0.058958820   -0.013532314
   3  C3      6.00    0.495410933   -0.026613114    2.349500491
   4  H4      1.00   -2.194094923    1.818810008   -0.121725654
   5  H5      1.00   -2.436948472   -1.528973133   -0.053429024
   6  H6      1.00   -0.681481545    0.071652045    4.045491795
   7  H7      1.00    1.610558338   -1.768560087    2.410621777
   8  H8      1.00    1.837570346    1.548112511    2.380232673
   9  H9      1.00    1.618357662    1.325712234   -2.131057091

 Bond lengths in Bohr (Angstrom)

 1-2  2.682946909  1-9  1.837759686  2-3  2.860660473  2-4  2.067388113  2-5  2.066815898
     ( 1.419754363)     ( 0.972500545)     ( 1.513796330)     ( 1.094014675)     ( 1.093711872)

 3-6  2.066668442  3-7  2.069219370  3-8  2.069322873
     ( 1.093633842)     ( 1.094983735)     ( 1.095038506)

 Bond angles

  1-2-3  109.00357840   1-2-4  108.91289128   1-2-5  108.33076240   2-1-9  107.60198287

  2-3-6  110.85247107   2-3-7  110.66436777   2-3-8  110.76538977   3-2-4  111.25794520

  3-2-5  110.67395101   4-2-5  108.59790208   6-3-7  108.82528251   6-3-8  108.72235284

  7-3-8  106.89652876

 NUCLEAR CHARGE:                   26
 NUMBER OF PRIMITIVE AOS:         144
 NUMBER OF SYMMETRY AOS:          141
 NUMBER OF CONTRACTIONS:           90   (   90A   )
 NUMBER OF INNER CORE ORBITALS:     0   (    0A   )
 NUMBER OF OUTER CORE ORBITALS:     3   (    3A   )
 NUMBER OF VALENCE ORBITALS:       18   (   18A   )


 NUCLEAR REPULSION ENERGY   82.13040363


 Eigenvalues of metric

         1 0.330E-02 0.119E-01 0.171E-01 0.211E-01 0.219E-01 0.233E-01 0.277E-01 0.283E-01


 Contracted 2-electron integrals neglected if value below      1.0D-11
 AO integral compression algorithm  1   Integral accuracy      1.0D-11

     37.749 MB (compressed) written to integral file ( 48.6%)


 NUMBER OF SORTED TWO-ELECTRON INTEGRALS:    8386560.     BUFFER LENGTH:  32768
 NUMBER OF SEGMENTS:   1  SEGMENT LENGTH:    8386560      RECORD LENGTH: 524288

 Memory used in sort:       8.94 MW

 SORT1 READ     9651015. AND WROTE     8003538. INTEGRALS IN     23 RECORDS. CPU TIME:     0.09 SEC, REAL TIME:     0.13 SEC
 SORT2 READ     8003538. AND WROTE     8386560. INTEGRALS IN    144 RECORDS. CPU TIME:     0.15 SEC, REAL TIME:     0.17 SEC

 FILE SIZES:   FILE 1:    68.2 MBYTE,  FILE 4:    96.5 MBYTE,   TOTAL:    164.7 MBYTE

 OPERATOR DM      FOR CENTER  0  COORDINATES:    0.000000    0.000000    0.000000


 **********************************************************************************************************************************
 DATASETS  * FILE   NREC   LENGTH (MB)   RECORD NAMES
              1      19       59.99       500      610      700      900      950      970     1000      129      960     1100   
                                          VAR    BASINP    GEOM    SYMINP    ZMAT    AOBASIS   BASIS     P2S    ABASIS      S 
                                         1400     1410     1200     1210     1080     1600     1650     1300     1700   
                                           T        V       H0       H01     AOSYM     SMH    MOLCAS    ERIS     OPER   

 PROGRAMS   *        TOTAL       INT
 CPU TIMES  *         0.95      0.83
 REAL TIME  *         1.10 SEC
 DISK USED  *       157.55 MB
 **********************************************************************************************************************************


 Program * Restricted Hartree-Fock

 Orbital guess generated from atomic densities.

 Initial occupancy:  13

 NELEC=   26   SYM=1   MS2= 0   THRE=1.0D-08   THRD=1.0D-06   THRG=1.0D-06  HFMA2=F  DIIS_START=2   DIIS_MAX=10   DIIS_INCORE=F

 Level shifts:    0.00 (CLOSED)    0.00 (OPEN)    0.30 (GAP_MIN)

 ITER           ETOT              DE          GRAD        DDIFF     DIIS  NEXP   TIME(IT)  TIME(TOT)  DIAG
   1     -154.06987466    -154.06987466     0.00D+00     0.43D-01     0     0       0.06      0.11    start
   2     -154.11378629      -0.04391162     0.70D-02     0.53D-02     1     0       0.05      0.16    diag
   3     -154.12213021      -0.00834392     0.35D-02     0.18D-02     2     0       0.06      0.22    diag
   4     -154.12297200      -0.00084179     0.81D-03     0.67D-03     3     0       0.05      0.27    diag
   5     -154.12302540      -0.00005340     0.18D-03     0.19D-03     4     0       0.05      0.32    diag
   6     -154.12302878      -0.00000338     0.48D-04     0.52D-04     5     0       0.05      0.37    diag
   7     -154.12302901      -0.00000023     0.11D-04     0.14D-04     6     0       0.05      0.42    diag
   8     -154.12302902      -0.00000001     0.24D-05     0.35D-05     7     0       0.03      0.45    fixocc
   9     -154.12302902      -0.00000000     0.61D-06     0.83D-06     8     0       0.05      0.50    diag
  10     -154.12302902      -0.00000000     0.19D-06     0.19D-06     0     0       0.05      0.55    diag/orth

 Final occupancy:  13

 !RHF STATE 1.1 Energy               -154.123029023385
  RHF One-electron energy            -372.239127657093
  RHF Two-electron energy             135.985695003205
  RHF Kinetic energy                  154.018219650283
  RHF Nuclear energy                   82.130403630503
  RHF Virial quotient                  -1.000680499835

 !RHF STATE 1.1 Dipole moment           0.00890973     0.49518428     0.52721990
 Dipole moment /Debye                   0.02264627     1.25863289     1.34005932

 Orbital energies:

           1.1          2.1          3.1          4.1          5.1          6.1          7.1          8.1          9.1         10.1
    -20.542194   -11.273438   -11.218054    -1.351054    -1.010604    -0.845225    -0.682326    -0.623951    -0.604257    -0.540845

          11.1         12.1         13.1         14.1         15.1
     -0.525305    -0.478148    -0.438483     0.150761     0.182266


 HOMO     13.1    -0.438483 =     -11.9317eV
 LUMO     14.1     0.150761 =       4.1024eV
 LUMO-HOMO         0.589245 =      16.0342eV

 Orbitals saved in record  2100.2


 **********************************************************************************************************************************
 DATASETS  * FILE   NREC   LENGTH (MB)   RECORD NAMES
              1      19       59.99       500      610      700      900      950      970     1000      129      960     1100   
                                          VAR    BASINP    GEOM    SYMINP    ZMAT    AOBASIS   BASIS     P2S    ABASIS      S 
                                         1400     1410     1200     1210     1080     1600     1650     1300     1700   
                                           T        V       H0       H01     AOSYM     SMH    MOLCAS    ERIS     OPER   

              2       4        0.64       700     1000      520     2100   
                                         GEOM     BASIS   MCVARS     RHF  

 PROGRAMS   *        TOTAL    HF-SCF       INT
 CPU TIMES  *         1.51      0.57      0.83
 REAL TIME  *         1.74 SEC
 DISK USED  *       157.55 MB
 **********************************************************************************************************************************


 PROGRAM * OPT (Geometry optimization)     Authors: F. Eckert and H.-J. Werner


 BFGS update of hessian

 *** Long output written to logfile /home/lme/Theoretische_Chemie/Nomodeco/pubchempy_integration/ethanol.molpro/run/ethanol_1.molpro/ethanol_1.log ***


 Geometry optimization using default procedure for command HF-SCF

 Geometry written to block  1 of record 700

 PQS Optimization using delocalized internal coordinates

 Point group c1. Number of degrees of freedom:   21

 ITER.   ENERGY(OLD)    ENERGY(NEW)      DE          GRADMAX     GRADNORM    GRADRMS     STEPMAX     STEPLEN     STEPRMS   CPU-time
   1  -154.12302902  -154.12536286    -0.00233384  0.02219277  0.04299203  0.00938163  0.08001255  0.17002712  0.03710296      3.12
   2  -154.12536286  -154.12554866    -0.00018580  0.00503446  0.00974119  0.00212570  0.02861417  0.05117088  0.01116640      6.14
   3  -154.12554866  -154.12555832    -0.00000966  0.00167636  0.00258257  0.00056356  0.00476402  0.01000194  0.00218260      9.26
   4  -154.12555832  -154.12555896    -0.00000064  0.00026464  0.00054165  0.00011820  0.00195510  0.00391112  0.00085348     12.36

 END OF GEOMETRY OPTIMIZATION.

 Geometry written to block  1 of record 700

 Recomputing wavefunction for reoriented structure

 Current geometry (xyz format, in Angstrom)

    9
 HF-SCF000/6-311G(D,P)  ENERGY=-154.12555896
 O          0.2450896605       -0.0584021907       -1.1611353617
 C         -0.5597532881        0.0302967587       -0.0152771551
 C          0.2505652427       -0.0136903136        1.2700154221
 H         -1.1684639510        0.9332634423       -0.0444567067
 H         -1.2347026175       -0.8154459696       -0.0600578894
 H         -0.4021286513        0.0103321008        2.1385315232
 H          0.8479236019       -0.9186359979        1.3098255601
 H          0.9230983821        0.8390758006        1.3361294356
 H          0.8259726711        0.6805654318       -1.1918699174

 **********************************************************************************************************************************


 **********************************************************************************************************************************
 DATASETS  * FILE   NREC   LENGTH (MB)   RECORD NAMES
              1      19       59.79       500      610      700      900      950      970     1000      129      960     1100   
                                          VAR    BASINP    GEOM    SYMINP    ZMAT    AOBASIS   BASIS     P2S    ABASIS      S 
                                         1400     1410     1200     1210     1080     1600     1650     1300     1700   
                                           T        V       H0       H01     AOSYM     SMH    MOLCAS    ERIS     OPER   

              2       4        0.64       700     1000      520     2100   
                                         GEOM     BASIS   MCVARS     RHF  

 PROGRAMS   *        TOTAL      OPTG    HF-SCF       INT
 CPU TIMES  *        15.25     13.73      0.57      0.83
 REAL TIME  *        16.55 SEC
 DISK USED  *       157.87 MB
 **********************************************************************************************************************************


 PROGRAM * HESSIAN

 PROGRAM * MCKINLEY (Hessian of the energy)     Author: A. Bernhardsson, R. Lindh

 Orbitals from record         2100.2

 Number of closed-shell orbitals: 13 ( 13 )
 Number of occupied orbitals:     13 ( 13 )

 Number of electrons= 26     Singlet     Space symmetry=1      Wavefunction type: CLOSED          


 McKinley needed     13.34 seconds of CPU time

 Entering CPHF calculation

 CPHF needed 225 iterations for 27 perturbations.  Total CPU time:   14.34 sec


 HF-SCF hessian saved to record  5300.2

 PROGRAM * FREQUENCIES (Calculation of harmonic vibrational spectra for HF-SCF)


 Permanent Dipole Moment [debye]
     1-   3    0.000000    0.000000    0.000000

 Dipole Moment Norm    0.0000000 [debye]

 Dipole Moment Derivatives [debye/ang]
              1             2             3             4             5             6             7             8
    1    0.00000000    0.00000000    0.00000000    0.00000000    0.00000000    0.00000000    0.00000000    0.00000000
    2    0.00000000    0.00000000    0.00000000    0.00000000    0.00000000    0.00000000    0.00000000    0.00000000
    3    0.00000000    0.00000000    0.00000000    0.00000000    0.00000000    0.00000000    0.00000000    0.00000000
              9            10            11            12            13            14            15            16
    1    0.00000000    0.00000000    0.00000000    0.00000000    0.00000000    0.00000000    0.00000000    0.00000000
    2    0.00000000    0.00000000    0.00000000    0.00000000    0.00000000    0.00000000    0.00000000    0.00000000
    3    0.00000000    0.00000000    0.00000000    0.00000000    0.00000000    0.00000000    0.00000000    0.00000000
             17            18            19            20            21            22            23            24
    1    0.00000000    0.00000000    0.00000000    0.00000000    0.00000000    0.00000000    0.00000000    0.00000000
    2    0.00000000    0.00000000    0.00000000    0.00000000    0.00000000    0.00000000    0.00000000    0.00000000
    3    0.00000000    0.00000000    0.00000000    0.00000000    0.00000000    0.00000000    0.00000000    0.00000000
             25            26            27
    1    0.00000000    0.00000000    0.00000000
    2    0.00000000    0.00000000    0.00000000
    3    0.00000000    0.00000000    0.00000000

 Projecting out rotations and translations

 Force Constants (Second Derivatives of the Energy) in [a.u.]
                             O1X1        O1Y1        O1Z1        C2X2        C2Y2    
           O1X1          0.4105079
           O1Y1          0.2918660   0.4861330
           O1Z1         -0.1686423   0.0394489   0.3246675
           C2X2         -0.1529652  -0.0163245   0.0778565   0.6308006
           C2Y2          0.0096922  -0.1092804  -0.0417293   0.0299712   0.7010198
           C2Z2          0.1101048  -0.0075139  -0.2176784   0.0007709   0.0034855
           C3X3          0.0116500  -0.0003424   0.0373434  -0.1482260   0.0012749
           C3Y3         -0.0023763   0.0045162  -0.0024976   0.0025598  -0.1009717
           C3Z3         -0.0088081  -0.0008687  -0.0452805  -0.0629126   0.0056903
           H4X4         -0.0180639   0.0199289   0.0150682  -0.1372615   0.1100000
           H4Y4          0.0031132   0.0070636  -0.0062231   0.1148490  -0.2517657
           H4Z4          0.0306758  -0.0317426  -0.0116238  -0.0110333   0.0174864
           H5X5         -0.0203216  -0.0219649   0.0078789  -0.1613842  -0.1268581
           H5Y5          0.0009340   0.0064774   0.0027306  -0.1369325  -0.2429073
           H5Z5          0.0311981   0.0314017  -0.0060978  -0.0175064  -0.0203498
           H6X6         -0.0000718  -0.0001596  -0.0061676   0.0151621  -0.0004446
           H6Y6          0.0001479   0.0019129   0.0000697  -0.0009743  -0.0019362
           H6Z6         -0.0037039   0.0002574  -0.0097976   0.0259477  -0.0009284
           H7X7          0.0025380  -0.0020428   0.0008634  -0.0130706   0.0199760
           H7Y7         -0.0019093   0.0008139   0.0008216   0.0004376  -0.0000909
           H7Z7          0.0019177  -0.0013030   0.0038393  -0.0195495   0.0301428
           H8X8          0.0023602   0.0019935   0.0004531  -0.0144889  -0.0188490
           H8Y8          0.0019455   0.0008085  -0.0015567   0.0014975   0.0019411
           H8Z8          0.0009730   0.0007403   0.0037139  -0.0215756  -0.0290034
           H9X9         -0.2356337  -0.2729541   0.0353463  -0.0185663  -0.0247626
           H9Y9         -0.3034132  -0.3984450   0.0089359   0.0049162   0.0039913
           H9Z9          0.0062849  -0.0304201  -0.0417426   0.0280024   0.0352057
                             C2Z2        C3X3        C3Y3        C3Z3        H4X4    
           C2Z2          0.5374009
           C3X3         -0.0777964   0.6126134
           C3Y3          0.0041301  -0.0053328   0.6298796
           C3Z3         -0.1788557  -0.0418042   0.0036451   0.5726139
           H4X4         -0.0113951  -0.0091880   0.0192918  -0.0025036   0.1500313
           H4Y4          0.0139076  -0.0009911   0.0007342  -0.0009419  -0.1326760
           H4Z4         -0.0611741  -0.0181214   0.0289426   0.0002333   0.0019900
           H5X5         -0.0111366  -0.0111091  -0.0170472  -0.0019799   0.0151084
           H5Y5         -0.0118592   0.0025817   0.0034254   0.0003031  -0.0176980
           H5Z5         -0.0594601  -0.0203535  -0.0271222  -0.0006888   0.0009200
           H6X6         -0.0142364  -0.1592676   0.0042427   0.1337756   0.0006143
           H6Y6          0.0009700   0.0041115  -0.0561624  -0.0044335  -0.0001916
           H6Z6         -0.0169558   0.1302075  -0.0043033  -0.2334399  -0.0007241
           H7X7          0.0018730  -0.1405884   0.1269862  -0.0054535  -0.0014258
           H7Y7         -0.0016264   0.1285213  -0.2551245   0.0078961   0.0000889
           H7Z7         -0.0002608  -0.0025018   0.0049846  -0.0570931  -0.0040564
           H8X8          0.0022163  -0.1587570  -0.1298410  -0.0095668   0.0001938
           H8Y8          0.0019832  -0.1313063  -0.2269011  -0.0111071  -0.0002103
           H8Z8         -0.0006409  -0.0075689  -0.0099481  -0.0584321   0.0013113
           H9X9         -0.0004006   0.0028726   0.0015169  -0.0007470  -0.0000087
           H9Y9         -0.0034768   0.0014832   0.0006043  -0.0001836   0.0014662
           H9Z9         -0.0023750   0.0005954   0.0021688   0.0009430  -0.0006103
                             H4Y4        H4Z4        H5X5        H5Y5        H5Z5    
           H4Y4          0.2639393
           H4Z4         -0.0103933   0.0726803
           H5X5          0.0153021   0.0006522   0.1800842
           H5Y5         -0.0241121  -0.0021854   0.1487215   0.2517555
           H5Z5          0.0025893   0.0020735   0.0036620   0.0125817   0.0729219
           H6X6          0.0002519   0.0012137   0.0008175  -0.0002773   0.0011180
           H6Y6         -0.0000784  -0.0002368   0.0002047   0.0000159   0.0000310
           H6Z6          0.0010310   0.0010304  -0.0003500  -0.0009760   0.0010024
           H7X7         -0.0004262  -0.0044238   0.0001215  -0.0002561   0.0007823
           H7Y7          0.0018789  -0.0002429   0.0001244   0.0011546   0.0007060
           H7Z7          0.0001115  -0.0059365   0.0009825  -0.0005484   0.0013840
           H8X8          0.0005626   0.0006131  -0.0012300   0.0010361  -0.0043386
           H8Y8          0.0012381  -0.0010161   0.0002168   0.0018516   0.0007696
           H8Z8          0.0005392   0.0013494  -0.0039360   0.0005348  -0.0058016
           H9X9          0.0000144  -0.0015662  -0.0020868   0.0018908   0.0045180
           H9Y9          0.0011022  -0.0006119   0.0013007   0.0023390  -0.0006075
           H9Z9         -0.0006202   0.0013674   0.0042269  -0.0005813  -0.0053335
                             H6X6        H6Y6        H6Z6        H7X7        H7Y7    
           H6X6          0.1679523
           H6Y6         -0.0039680   0.0530508
           H6Z6         -0.1473100   0.0054056   0.2519540
           H7X7         -0.0114358   0.0176467  -0.0017262   0.1491891
           H7Y7         -0.0010682   0.0015230  -0.0010497  -0.1421270   0.2733220
           H7Z7          0.0148391  -0.0258763   0.0025276   0.0076053  -0.0069894
           H8X8         -0.0132825  -0.0170718  -0.0017851   0.0147832   0.0156101
           H8Y8          0.0013124   0.0015931   0.0011410  -0.0196849  -0.0230686
           H8Z8          0.0173272   0.0246909   0.0030105   0.0006302   0.0005334
           H9X9         -0.0004886   0.0000950  -0.0005559  -0.0001112   0.0003220
           H9Y9          0.0001107   0.0000812  -0.0005776  -0.0000720  -0.0004083
           H9Z9         -0.0005597  -0.0006207   0.0006683  -0.0001507  -0.0000485
                             H7Z7        H8X8        H8Y8        H8Z8        H9X9    
           H7Z7          0.0564033
           H8X8          0.0008868   0.1699127
           H8Y8         -0.0008450   0.1467579   0.2427896
           H8Z8         -0.0006323   0.0123533   0.0115923   0.0583427
           H9X9         -0.0001236   0.0005085  -0.0005286   0.0004855   0.2535141
           H9Y9          0.0003232  -0.0001982  -0.0002525   0.0003207   0.2944063
           H9Z9         -0.0002315  -0.0008321  -0.0009613  -0.0009096  -0.0369566
                             H9Y9        H9Z9    
           H9Y9          0.3909879
           H9Z9         -0.0041224   0.0476135


 Atomic Masses
     1-   9   15.994910   12.000000   12.000000    1.007825    1.007825    1.007825    1.007825    1.007825    1.007825

 Mass weighted Second Derivative Matrix
                             O1X1        O1Y1        O1Z1        C2X2        C2Y2    
           O1X1          0.0256649
           O1Y1          0.0182474   0.0303930
           O1Z1         -0.0105435   0.0024663   0.0202982
           C2X2         -0.0110411  -0.0011783   0.0056197   0.0525667
           C2Y2          0.0006996  -0.0078879  -0.0030120   0.0024976   0.0584183
           C2Z2          0.0079474  -0.0005424  -0.0157121   0.0000642   0.0002905
           C3X3          0.0008409  -0.0000247   0.0026955  -0.0123522   0.0001062
           C3Y3         -0.0001715   0.0003260  -0.0001803   0.0002133  -0.0084143
           C3Z3         -0.0006358  -0.0000627  -0.0032684  -0.0052427   0.0004742
           H4X4         -0.0044991   0.0049636   0.0037530  -0.0394699   0.0316307
           H4Y4          0.0007754   0.0017593  -0.0015500   0.0330251  -0.0723958
           H4Z4          0.0076403  -0.0079060  -0.0028951  -0.0031727   0.0050283
           H5X5         -0.0050614  -0.0054707   0.0019624  -0.0464064  -0.0364783
           H5Y5          0.0002326   0.0016133   0.0006801  -0.0393753  -0.0698485
           H5Z5          0.0077704   0.0078211  -0.0015188  -0.0050340  -0.0058516
           H6X6         -0.0000179  -0.0000398  -0.0015361   0.0043599  -0.0001278
           H6Y6          0.0000368   0.0004764   0.0000174  -0.0002802  -0.0005568
           H6Z6         -0.0009225   0.0000641  -0.0024403   0.0074613  -0.0002670
           H7X7          0.0006321  -0.0005088   0.0002151  -0.0037585   0.0057441
           H7Y7         -0.0004755   0.0002027   0.0002046   0.0001258  -0.0000261
           H7Z7          0.0004776  -0.0003245   0.0009562  -0.0056215   0.0086676
           H8X8          0.0005879   0.0004965   0.0001128  -0.0041663  -0.0054201
           H8Y8          0.0004846   0.0002014  -0.0003877   0.0004306   0.0005582
           H8Z8          0.0002424   0.0001844   0.0009250  -0.0062041  -0.0083400
           H9X9         -0.0586886  -0.0679839   0.0088036  -0.0053388  -0.0071205
           H9Y9         -0.0755703  -0.0992396   0.0022256   0.0014137   0.0011477
           H9Z9          0.0015654  -0.0075766  -0.0103967   0.0080521   0.0101235
                             C2Z2        C3X3        C3Y3        C3Z3        H4X4    
           C2Z2          0.0447834
           C3X3         -0.0064830   0.0510511
           C3Y3          0.0003442  -0.0004444   0.0524900
           C3Z3         -0.0149046  -0.0034837   0.0003038   0.0477178
           H4X4         -0.0032767  -0.0026420   0.0055474  -0.0007199   0.1488664
           H4Y4          0.0039992  -0.0002850   0.0002111  -0.0002708  -0.1316459
           H4Z4         -0.0175908  -0.0052109   0.0083225   0.0000671   0.0019746
           H5X5         -0.0032024  -0.0031945  -0.0049020  -0.0005693   0.0149911
           H5Y5         -0.0034101   0.0007424   0.0009850   0.0000872  -0.0175606
           H5Z5         -0.0170979  -0.0058527  -0.0077990  -0.0001981   0.0009129
           H6X6         -0.0040937  -0.0457977   0.0012200   0.0384675   0.0006096
           H6Y6          0.0002789   0.0011823  -0.0161496  -0.0012748  -0.0001901
           H6Z6         -0.0048757   0.0374415  -0.0012374  -0.0671262  -0.0007185
           H7X7          0.0005386  -0.0404265   0.0365152  -0.0015682  -0.0014147
           H7Y7         -0.0004677   0.0369566  -0.0733616   0.0022705   0.0000883
           H7Z7         -0.0000750  -0.0007194   0.0014333  -0.0164173  -0.0040249
           H8X8          0.0006373  -0.0456509  -0.0373361  -0.0027509   0.0001923
           H8Y8          0.0005703  -0.0377574  -0.0652459  -0.0031939  -0.0002087
           H8Z8         -0.0001843  -0.0021765  -0.0028606  -0.0168023   0.0013011
           H9X9         -0.0001152   0.0008260   0.0004362  -0.0002148  -0.0000086
           H9Y9         -0.0009998   0.0004265   0.0001738  -0.0000528   0.0014548
           H9Z9         -0.0006829   0.0001712   0.0006236   0.0002712  -0.0006056
                             H4Y4        H4Z4        H5X5        H5Y5        H5Z5    
           H4Y4          0.2618900
           H4Z4         -0.0103126   0.0721160
           H5X5          0.0151833   0.0006472   0.1786860
           H5Y5         -0.0239249  -0.0021685   0.1475668   0.2498008
           H5Z5          0.0025692   0.0020574   0.0036336   0.0124840   0.0723557
           H6X6          0.0002500   0.0012042   0.0008112  -0.0002752   0.0011093
           H6Y6         -0.0000778  -0.0002349   0.0002031   0.0000158   0.0000308
           H6Z6          0.0010230   0.0010224  -0.0003473  -0.0009684   0.0009946
           H7X7         -0.0004228  -0.0043895   0.0001205  -0.0002541   0.0007763
           H7Y7          0.0018643  -0.0002411   0.0001235   0.0011456   0.0007006
           H7Z7          0.0001106  -0.0058904   0.0009748  -0.0005441   0.0013733
           H8X8          0.0005582   0.0006083  -0.0012205   0.0010280  -0.0043050
           H8Y8          0.0012285  -0.0010082   0.0002151   0.0018372   0.0007637
           H8Z8          0.0005350   0.0013389  -0.0039054   0.0005306  -0.0057566
           H9X9          0.0000142  -0.0015540  -0.0020706   0.0018761   0.0044830
           H9Y9          0.0010936  -0.0006071   0.0012906   0.0023209  -0.0006028
           H9Z9         -0.0006154   0.0013568   0.0041941  -0.0005768  -0.0052921
                             H6X6        H6Y6        H6Z6        H7X7        H7Y7    
           H6X6          0.1666483
           H6Y6         -0.0039372   0.0526389
           H6Z6         -0.1461662   0.0053636   0.2499977
           H7X7         -0.0113470   0.0175097  -0.0017128   0.1480308
           H7Y7         -0.0010599   0.0015112  -0.0010416  -0.1410234   0.2711998
           H7Z7          0.0147239  -0.0256754   0.0025080   0.0075463  -0.0069351
           H8X8         -0.0131794  -0.0169392  -0.0017712   0.0146684   0.0154889
           H8Y8          0.0013023   0.0015808   0.0011321  -0.0195321  -0.0228895
           H8Z8          0.0171927   0.0244992   0.0029871   0.0006253   0.0005292
           H9X9         -0.0004848   0.0000942  -0.0005515  -0.0001103   0.0003195
           H9Y9          0.0001098   0.0000805  -0.0005731  -0.0000714  -0.0004051
           H9Z9         -0.0005554  -0.0006159   0.0006631  -0.0001495  -0.0000481
                             H7Z7        H8X8        H8Y8        H8Z8        H9X9    
           H7Z7          0.0559653
           H8X8          0.0008799   0.1685934
           H8Y8         -0.0008384   0.1456184   0.2409045
           H8Z8         -0.0006273   0.0122574   0.0115023   0.0578897
           H9X9         -0.0001226   0.0005046  -0.0005245   0.0004817   0.2515457
           H9Y9          0.0003207  -0.0001967  -0.0002505   0.0003182   0.2921205
           H9Z9         -0.0002297  -0.0008257  -0.0009538  -0.0009026  -0.0366697
                             H9Y9        H9Z9    
           H9Y9          0.3879522
           H9Z9         -0.0040904   0.0472438


 Mass Weighted 2nd Derivative Matrix Eigenvalues
     1-  10    0.000000    0.000000    0.000000    0.000000    0.000000    0.000000    0.003089    0.004098    0.007798    0.028341
    11-  20    0.034650    0.049354    0.053716    0.057733    0.072713    0.084356    0.087618    0.092188    0.097220    0.098267
    21-  27    0.102627    0.373955    0.376899    0.388705    0.395236    0.397803    0.659343

 Mass Weighted 2nd Derivative Matrix Eigenvectors
              1             2             3             4             5             6             7             8
    1    0.00000000    0.83836781    0.00000000    0.00000000    0.00000000    0.00000000    0.06393719   -0.11398433
    2    0.89661226    0.01888160    0.04096209   -0.02671713   -0.05836589    0.04556684    0.15849710    0.20213076
    3   -0.01153455    0.08854553    0.42450264    0.12308830    0.14421981   -0.37409907    0.00677484   -0.02307108
    4   -0.01127241    0.36167598   -0.01043839    0.29083332    0.08017810    0.19844785    0.00970312   -0.09487728
    5    0.14865232   -0.03735169    0.46336005   -0.22878359    0.08788080    0.47157958   -0.19126957   -0.17105701
    6    0.03070087   -0.17516124    0.32723523    0.32681230    0.17051840   -0.21809144   -0.00074763   -0.00449086
    7    0.02427206   -0.03759001   -0.10666596    0.63039740    0.21299048    0.34683706   -0.01216255    0.04650369
    8    0.01963493    0.01671993   -0.06582317   -0.30016742    0.75510871    0.07026568   -0.01711278    0.06583134
    9    0.00387628    0.07840833    0.36979189    0.11028959    0.10962104   -0.32537841    0.01983123   -0.09844871
   10   -0.09129114    0.08999902    0.15158573    0.05774612   -0.05575324    0.19172533   -0.06416772   -0.09244301
   11   -0.01352794   -0.02259596    0.23853882   -0.08173869   -0.03004617    0.22778416   -0.10035007   -0.09199618
   12    0.09342479   -0.10596407    0.09573945    0.17062772   -0.02070217   -0.04333441    0.01139948    0.02698895
   13    0.07884148    0.12523070   -0.14669438    0.10368587    0.09527335   -0.07098099    0.06272174    0.04159083
   14   -0.01856390   -0.02387690    0.25002902   -0.08300738   -0.03727806    0.23764976   -0.10291142   -0.10404117
   15   -0.06444242   -0.11197103    0.07424473    0.11778513    0.14868670   -0.03376829   -0.01472212   -0.01277430
   16    0.00876354   -0.09012103   -0.04058109    0.24773907    0.08307902    0.13762886    0.00986514    0.06306559
   17   -0.13639846   -0.00777644    0.08219363   -0.13330972    0.24554675    0.12167347    0.52835469    0.18477607
   18    0.00635309   -0.03646769    0.09709921    0.08212755    0.04707707   -0.06920576    0.00195252    0.00196839
   19    0.09530088    0.00299608   -0.18602923    0.21008617    0.14117241   -0.03358687   -0.35090693   -0.04249622
   20    0.06023146    0.01639730   -0.12151799   -0.07221016    0.27438223   -0.06901196   -0.22111174   -0.01455431
   21   -0.08353009    0.07689534    0.10605754   -0.04316132    0.10238322   -0.11371845    0.29356208    0.06368656
   22   -0.07565785   -0.03338027    0.11361802    0.16471341   -0.01034504    0.23088175    0.33131821    0.07313047
   23    0.06516910    0.01785104   -0.13465883   -0.07105475    0.28341381   -0.08017405   -0.24801173   -0.01391762
   24    0.07510957    0.08371269    0.12779919    0.00930316   -0.06810958   -0.12366548   -0.27120678   -0.16801698
   25   -0.07206927    0.19894079    0.12663868   -0.02223665   -0.06482781    0.10957376   -0.23505731    0.57816316
   26    0.28438282    0.01597281   -0.08852282    0.00996255    0.03271108   -0.07575051    0.23165816   -0.40242225
   27    0.06122658    0.07490468    0.12440612    0.01140584   -0.05029681   -0.11928220   -0.11382522    0.53526421
              9            10            11            12            13            14            15            16
    1    0.26989796    0.01246848    0.18519003    0.06791179    0.23966143   -0.28571581   -0.01971528    0.00257712
    2   -0.06428066    0.05867233   -0.01535420    0.02121795   -0.01047172    0.07222833   -0.06311300   -0.22326921
    3    0.52280251   -0.01132775   -0.34788199   -0.12295121   -0.40063091    0.19573544   -0.08328814   -0.08859141
    4   -0.38454889   -0.00698897   -0.37152689    0.21907820   -0.09385076    0.46599885    0.11706980    0.10764228
    5    0.05514715   -0.22266974    0.01559160    0.09159585   -0.21241874   -0.23848759    0.30737017    0.17802627
    6   -0.02356812   -0.00386550   -0.10582816    0.42907284    0.42825706   -0.23841623   -0.03867914   -0.20010714
    7    0.06432600   -0.00389381    0.04702934   -0.39919106   -0.10026851   -0.24421078   -0.09031672   -0.15581055
    8   -0.01539435   -0.14608525    0.00386655   -0.07742456    0.18127026    0.15892482   -0.33709878    0.04775785
    9   -0.41822603   -0.00247729    0.52913151   -0.09419452   -0.12412214    0.10946522    0.01335634   -0.02678195
   10   -0.08890230    0.38020379   -0.08644945   -0.04227668    0.20705122    0.30000875   -0.11188102   -0.10398295
   11    0.02923187    0.20438788    0.00799750   -0.04993790    0.08271383    0.03697182   -0.02620825   -0.00224602
   12   -0.05942795    0.20452983   -0.15528822    0.20636225    0.03407276   -0.27042588   -0.36563689    0.67595179
   13   -0.11457463   -0.36213580   -0.09817656    0.19430969   -0.22043593   -0.04226614    0.17954605    0.18814628
   14    0.01983625    0.23691434    0.00581223   -0.06334922    0.08399018    0.06891728   -0.04987805   -0.05688209
   15   -0.04013837   -0.21234922   -0.14660044   -0.03738150    0.37234449   -0.03081853    0.47830795   -0.15150287
   16    0.25063260    0.01394412    0.37415196    0.15364021   -0.05218246    0.19164209    0.05377261    0.13417482
   17   -0.02747333    0.17531522   -0.02115028    0.04791387   -0.08939734   -0.09085199    0.16929632    0.03494925
   18    0.05095247    0.00492043    0.42345232    0.16267310   -0.05060326    0.22030173    0.05398650    0.12605653
   19    0.03427543    0.27839080    0.07175758   -0.00139405   -0.17098478   -0.08547966    0.21725613    0.06111764
   20   -0.00203423    0.16043155    0.02500318    0.04913325   -0.04723654    0.01211218    0.07261108    0.08061405
   21   -0.32560296    0.32712772   -0.08816350   -0.22727572   -0.20555155   -0.32118585    0.14190789   -0.02233407
   22    0.05147429   -0.26123213    0.08449819   -0.13628333    0.06827952    0.11152027   -0.19493710    0.08951221
   23   -0.01679901    0.19362928   -0.03295502    0.02123241   -0.04272371   -0.08490950    0.06276114   -0.08461275
   24   -0.28457902   -0.32397579   -0.07838959   -0.40014830    0.07709223   -0.10155597   -0.21942803    0.09903607
   25   -0.10315702   -0.06129037    0.03617699    0.18295906   -0.11665929   -0.10249653   -0.15752972   -0.21302400
   26    0.11614808    0.06801851    0.00931773   -0.13842047    0.16185272    0.04455795    0.12543015    0.13854221
   27    0.10051830    0.06676122   -0.02977783   -0.36995619    0.31922547    0.16887408    0.33004604    0.40863334
             17            18            19            20            21            22            23            24
    1    0.04085182    0.05653495    0.00571785    0.00879235   -0.02304869    0.00260322    0.00222703   -0.00066782
    2    0.10669400    0.07658849    0.03938021   -0.00073654    0.00285545    0.00129752    0.00031860    0.00115711
    3    0.06967746    0.07856571    0.02165010   -0.01992371    0.00518307   -0.00468279   -0.00422719    0.00196684
    4   -0.04800556   -0.08240171   -0.01835338    0.03724983   -0.28556478    0.15576773    0.08301314   -0.05251266
    5   -0.09523273   -0.07123497   -0.09993579    0.00046640    0.00946506   -0.16673864   -0.07674522   -0.09253830
    6   -0.13740314   -0.40078510   -0.01808633    0.13166986    0.04858960    0.01369039    0.01717496   -0.00511897
    7   -0.21848959    0.04095633   -0.01775233   -0.16719368   -0.02816369    0.02674263   -0.10811689    0.14843230
    8    0.02970048    0.00125924   -0.16787891   -0.00045193   -0.00011542    0.05129517   -0.04160402    0.19940572
    9   -0.29731113    0.29371885   -0.02476493    0.02959052    0.01773429    0.06626410   -0.11411146   -0.12671414
   10    0.08788046    0.03500860    0.04931546   -0.16946276    0.52138665   -0.45901099   -0.22522943   -0.03134313
   11    0.03639492    0.04166190    0.00471255   -0.11870295    0.38023583    0.70888858    0.34531562    0.03768736
   12    0.08237603    0.36557109    0.01552499   -0.11693904   -0.07687696   -0.02952298   -0.01893965   -0.00244221
   13   -0.06311035   -0.07446807   -0.05752934   -0.15705211    0.48121484   -0.08759771   -0.05984071    0.22137689
   14   -0.01174364   -0.02291509    0.00609689    0.13380096   -0.42439747   -0.13433585   -0.08366341    0.28368325
   15    0.40097047    0.54560761    0.03499826   -0.10879880   -0.07715155   -0.00143811   -0.00439984    0.01359750
   16    0.37248238   -0.24900589    0.06263726   -0.24266842   -0.09997190    0.17017846   -0.26089491   -0.35347222
   17   -0.11198289   -0.01580783    0.68841643    0.02291494    0.00964119   -0.00185381    0.00537007    0.02482306
   18    0.25640185   -0.11635026    0.02590484   -0.15789943   -0.06361345   -0.21003094    0.33852420    0.46826370
   19    0.10793635    0.04555093    0.15161803    0.51028432    0.14486945   -0.05455221    0.23053080    0.18905572
   20    0.12816321    0.00369367    0.05081244    0.35525561    0.09703212    0.08867924   -0.36717417   -0.26267807
   21    0.41862083   -0.26174500   -0.41775202   -0.04785001   -0.01814051   -0.00070986    0.00888341    0.00195583
   22    0.12869933    0.05767199   -0.14467260    0.46497813    0.13386722   -0.21049097    0.39080246   -0.35135173
   23   -0.16283750   -0.00740867    0.04389507   -0.38668954   -0.10666531   -0.26787992    0.50510327   -0.45202399
   24    0.30369142   -0.29323858    0.48951024   -0.04528992   -0.01210296   -0.01351350    0.03033582   -0.03652569
   25    0.12294148    0.10303064    0.04043970    0.00728160   -0.00698468    0.00132745    0.00238340   -0.00258801
   26   -0.07691505   -0.06287762   -0.02668782   -0.00369474    0.00051593   -0.00031492    0.00215850   -0.00486096
   27   -0.23960519   -0.18338978   -0.08657241   -0.00030004   -0.00162194   -0.00202241   -0.00307190    0.00222228
             25            26            27
    1   -0.00246002    0.00077495   -0.15218305
    2   -0.00196361    0.00508129   -0.18872220
    3   -0.00088177    0.00248737    0.01351232
    4    0.09156261   -0.09792307   -0.00201068
    5    0.10791240   -0.21431344   -0.00577048
    6    0.00545693   -0.00910684   -0.00349165
    7    0.19450653    0.05152326    0.00132664
    8   -0.13116878   -0.18201937    0.00078238
    9   -0.12097619   -0.01803598    0.00005806
   10   -0.00161191   -0.11158110    0.00118716
   11    0.00974265    0.15899958    0.00114850
   12    0.00007119   -0.01218988   -0.00195339
   13   -0.29907730    0.44446504    0.00662109
   14   -0.38196555    0.56751251    0.00979427
   15   -0.02129429    0.03525283    0.00000004
   16   -0.33661834   -0.05547152    0.00003455
   17    0.00563464   -0.00646151    0.00008115
   18    0.45315165    0.06992305   -0.00162511
   19   -0.31963888   -0.28764373   -0.00024890
   20    0.49967629    0.43363701   -0.00000426
   21   -0.02311623   -0.01837269    0.00023547
   22   -0.02407555    0.16990084   -0.00060557
   23   -0.05048097    0.20293603   -0.00178140
   24   -0.01033741    0.01463043    0.00085058
   25    0.00370421   -0.00264834    0.60164002
   26    0.00546468   -0.00926966    0.75980671
   27    0.00365184   -0.00549320   -0.03949006

   Low Vibration      Wavenumber
        Nr             [1/cm] 
        1                0.00
        2                0.00
        3                0.00
        4                0.00
        5                0.00
        6                0.00

     Vibration        Wavenumber
        Nr             [1/cm] 
        1              285.70
        2              329.06
        3              453.94
        4              865.39
        5              956.88
        6             1142.00
        7             1191.39
        8             1235.14
        9             1386.15
       10             1493.01
       11             1521.60
       12             1560.78
       13             1602.81
       14             1611.42
       15             1646.78
       16             3143.50
       17             3155.85
       18             3204.90
       19             3231.71
       20             3242.19
       21             4174.07

 FREQUENCIES * CALCULATION OF NORMAL MODES FOR HF-SCF


 Atomic Coordinates

  Nr  Atom  Charge       X              Y              Z

   1   O1    8.00    0.463152334   -0.110364146   -2.194227827
   2   C2    6.00   -1.057780412    0.057252576   -0.028869639
   3   C3    6.00    0.473499685   -0.025870943    2.399981322
   4   H4    1.00   -2.208076854    1.763612308   -0.084011000
   5   H5    1.00   -2.333249792   -1.540969552   -0.113492963
   6   H6    1.00   -0.759913018    0.019524841    4.041238888
   7   H7    1.00    1.602343382   -1.735970444    2.475211580
   8   H8    1.00    1.744403128    1.585623461    2.524918700
   9   H9    1.00    1.560862135    1.286082276   -2.252307720

 Gradient norm at reference geometry: 0.81687D-03

 ?WARNING: GRADIENT NORM NOT ZERO!

 Normal Modes

                              1 A         2 A         3 A         4 A         5 A  
 Wavenumbers [cm-1]          285.70      329.06      453.94      865.39      956.88
 Intensities [km/mol]          0.00        0.00        0.00        0.00        0.00
 Intensities [relative]        0.00        0.00        0.00        0.00        0.00
           O1X1             0.01599    -0.02850     0.06749     0.00312     0.04630
           O1Y1             0.03963     0.05054    -0.01607     0.01467    -0.00384
           O1Z1             0.00169    -0.00577     0.13072    -0.00283    -0.08698
           C2X2             0.00280    -0.02739    -0.11101    -0.00202    -0.10725
           C2Y2            -0.05521    -0.04938     0.01592    -0.06428     0.00450
           C2Z2            -0.00022    -0.00130    -0.00680    -0.00112    -0.03055
           C3X3            -0.00351     0.01342     0.01857    -0.00112     0.01358
           C3Y3            -0.00494     0.01900    -0.00444    -0.04217     0.00112
           C3Z3             0.00572    -0.02842    -0.12073    -0.00072     0.15275
           H4X4            -0.06392    -0.09208    -0.08856     0.37872    -0.08611
           H4Y4            -0.09996    -0.09164     0.02912     0.20359     0.00797
           H4Z4             0.01136     0.02688    -0.05920     0.20373    -0.15468
           H5X5             0.06248     0.04143    -0.11413    -0.36073    -0.09779
           H5Y5            -0.10251    -0.10364     0.01976     0.23599     0.00579
           H5Z5            -0.01466    -0.01272    -0.03998    -0.21152    -0.14603
           H6X6             0.00983     0.06282     0.24966     0.01389     0.37270
           H6Y6             0.52630     0.18406    -0.02737     0.17463    -0.02107
           H6Z6             0.00194     0.00196     0.05075     0.00490     0.42181
           H7X7            -0.34954    -0.04233     0.03414     0.27731     0.07148
           H7Y7            -0.22025    -0.01450    -0.00203     0.15981     0.02491
           H7Z7             0.29242     0.06344    -0.32434     0.32586    -0.08782
           H8X8             0.33003     0.07285     0.05127    -0.26022     0.08417
           H8Y8            -0.24705    -0.01386    -0.01673     0.19288    -0.03283
           H8Z8            -0.27015    -0.16736    -0.28347    -0.32272    -0.07808
           H9X9            -0.23414     0.57591    -0.10276    -0.06105     0.03604
           H9Y9             0.23076    -0.40086     0.11570     0.06775     0.00928
           H9Z9            -0.11338     0.53318     0.10013     0.06650    -0.02966

                              6 A         7 A         8 A         9 A        10 A  
 Wavenumbers [cm-1]         1142.00     1191.39     1235.14     1386.15     1493.01
 Intensities [km/mol]          0.00        0.00        0.00        0.00        0.00
 Intensities [relative]        0.00        0.00        0.00        0.00        0.00
           O1X1             0.01698     0.05992    -0.07144    -0.00493     0.00064
           O1Y1             0.00531    -0.00262     0.01806    -0.01578    -0.05583
           O1Z1            -0.03074    -0.10017     0.04894    -0.02083    -0.02215
           C2X2             0.06324    -0.02709     0.13452     0.03380     0.03107
           C2Y2             0.02644    -0.06132    -0.06885     0.08873     0.05139
           C2Z2             0.12386     0.12363    -0.06882    -0.01117    -0.05777
           C3X3            -0.11524    -0.02895    -0.07050    -0.02607    -0.04498
           C3Y3            -0.02235     0.05233     0.04588    -0.09731     0.01379
           C3Z3            -0.02719    -0.03583     0.03160     0.00386    -0.00773
           H4X4            -0.04211     0.20625     0.29884    -0.11145    -0.10358
           H4Y4            -0.04974     0.08239     0.03683    -0.02611    -0.00224
           H4Z4             0.20556     0.03394    -0.26937    -0.36421     0.67332
           H5X5             0.19355    -0.21958    -0.04210     0.17885     0.18741
           H5Y5            -0.06310     0.08366     0.06865    -0.04968    -0.05666
           H5Z5            -0.03724     0.37090    -0.03070     0.47645    -0.15091
           H6X6             0.15304    -0.05198     0.19090     0.05356     0.13365
           H6Y6             0.04773    -0.08905    -0.09050     0.16864     0.03481
           H6Z6             0.16204    -0.05041     0.21944     0.05378     0.12557
           H7X7            -0.00139    -0.17032    -0.08515     0.21641     0.06088
           H7Y7             0.04894    -0.04705     0.01207     0.07233     0.08030
           H7Z7            -0.22639    -0.20475    -0.31994     0.14136    -0.02225
           H8X8            -0.13575     0.06801     0.11109    -0.19418     0.08916
           H8Y8             0.02115    -0.04256    -0.08458     0.06252    -0.08428
           H8Z8            -0.39859     0.07679    -0.10116    -0.21857     0.09865
           H9X9             0.18225    -0.11621    -0.10210    -0.15692    -0.21220
           H9Y9            -0.13788     0.16122     0.04438     0.12494     0.13800
           H9Z9            -0.36852     0.31798     0.16822     0.32876     0.40704

                             11 A        12 A        13 A        14 A        15 A  
 Wavenumbers [cm-1]         1521.60     1560.78     1602.81     1611.42     1646.78
 Intensities [km/mol]          0.00        0.00        0.00        0.00        0.00
 Intensities [relative]        0.00        0.00        0.00        0.00        0.00
           O1X1             0.01021     0.01414     0.00143     0.00220    -0.00576
           O1Y1             0.02668     0.01915     0.00985    -0.00018     0.00071
           O1Z1             0.01742     0.01964     0.00541    -0.00498     0.00130
           C2X2            -0.01386    -0.02379    -0.00530     0.01075    -0.08244
           C2Y2            -0.02749    -0.02056    -0.02885     0.00013     0.00273
           C2Z2            -0.03966    -0.11570    -0.00522     0.03801     0.01403
           C3X3            -0.06307     0.01182    -0.00512    -0.04826    -0.00813
           C3Y3             0.00857     0.00036    -0.04846    -0.00013    -0.00003
           C3Z3            -0.08583     0.08479    -0.00715     0.00854     0.00512
           H4X4             0.08754     0.03487     0.04912    -0.16880     0.51936
           H4Y4             0.03625     0.04150     0.00469    -0.11824     0.37876
           H4Z4             0.08206     0.36415     0.01546    -0.11648    -0.07658
           H5X5            -0.06286    -0.07418    -0.05731    -0.15644     0.47934
           H5Y5            -0.01170    -0.02283     0.00607     0.13328    -0.42275
           H5Z5             0.39941     0.54349     0.03486    -0.10838    -0.07685
           H6X6             0.37103    -0.24804     0.06239    -0.24172    -0.09958
           H6Y6            -0.11155    -0.01575     0.68574     0.02283     0.00960
           H6Z6             0.25540    -0.11590     0.02580    -0.15729    -0.06337
           H7X7             0.10752     0.04537     0.15103     0.50830     0.14431
           H7Y7             0.12766     0.00368     0.05061     0.35387     0.09665
           H7Z7             0.41699    -0.26073    -0.41613    -0.04766    -0.01807
           H8X8             0.12820     0.05745    -0.14411     0.46317     0.13335
           H8Y8            -0.16220    -0.00738     0.04372    -0.38519    -0.10625
           H8Z8             0.30251    -0.29210     0.48761    -0.04511    -0.01206
           H9X9             0.12246     0.10263     0.04028     0.00725    -0.00696
           H9Y9            -0.07662    -0.06263    -0.02658    -0.00368     0.00051
           H9Z9            -0.23867    -0.18268    -0.08624    -0.00030    -0.00162

                             16 A        17 A        18 A        19 A        20 A  
 Wavenumbers [cm-1]         3143.50     3155.85     3204.90     3231.71     3242.19
 Intensities [km/mol]          0.00        0.00        0.00        0.00        0.00
 Intensities [relative]        0.00        0.00        0.00        0.00        0.00
           O1X1             0.00065     0.00056    -0.00017    -0.00062     0.00019
           O1Y1             0.00032     0.00008     0.00029    -0.00049     0.00127
           O1Z1            -0.00117    -0.00106     0.00049    -0.00022     0.00062
           C2X2             0.04497     0.02396    -0.01516     0.02643    -0.02827
           C2Y2            -0.04813    -0.02215    -0.02671     0.03115    -0.06187
           C2Z2             0.00395     0.00496    -0.00148     0.00158    -0.00263
           C3X3             0.00772    -0.03121     0.04285     0.05615     0.01487
           C3Y3             0.01481    -0.01201     0.05756    -0.03787    -0.05254
           C3Z3             0.01913    -0.03294    -0.03658    -0.03492    -0.00521
           H4X4            -0.45723    -0.22435    -0.03122    -0.00161    -0.11115
           H4Y4             0.70613     0.34397     0.03754     0.00970     0.15838
           H4Z4            -0.02941    -0.01887    -0.00243     0.00007    -0.01214
           H5X5            -0.08726    -0.05961     0.22052    -0.29791     0.44274
           H5Y5            -0.13381    -0.08334     0.28258    -0.38048     0.56531
           H5Z5            -0.00143    -0.00438     0.01354    -0.02121     0.03512
           H6X6             0.16952    -0.25988    -0.35210    -0.33531    -0.05526
           H6Y6            -0.00185     0.00535     0.02473     0.00561    -0.00644
           H6Z6            -0.20921     0.33721     0.46644     0.45139     0.06965
           H7X7            -0.05434     0.22963     0.18832    -0.31840    -0.28652
           H7Y7             0.08833    -0.36575    -0.26166     0.49773     0.43195
           H7Z7            -0.00071     0.00885     0.00195    -0.02303    -0.01830
           H8X8            -0.20967     0.38928    -0.34999    -0.02398     0.16924
           H8Y8            -0.26684     0.50314    -0.45027    -0.05028     0.20215
           H8Z8            -0.01346     0.03022    -0.03638    -0.01030     0.01457
           H9X9             0.00132     0.00237    -0.00258     0.00369    -0.00264
           H9Y9            -0.00031     0.00215    -0.00484     0.00544    -0.00923
           H9Z9            -0.00201    -0.00306     0.00221     0.00364    -0.00547

                             21 A  
 Wavenumbers [cm-1]         4174.07
 Intensities [km/mol]          0.00
 Intensities [relative]        0.00
           O1X1            -0.03805
           O1Y1            -0.04719
           O1Z1             0.00338
           C2X2            -0.00058
           C2Y2            -0.00167
           C2Z2            -0.00101
           C3X3             0.00038
           C3Y3             0.00023
           C3Z3             0.00002
           H4X4             0.00118
           H4Y4             0.00114
           H4Z4            -0.00195
           H5X5             0.00660
           H5Y5             0.00976
           H5Z5             0.00000
           H6X6             0.00003
           H6Y6             0.00008
           H6Z6            -0.00162
           H7X7            -0.00025
           H7Y7            -0.00000
           H7Z7             0.00023
           H8X8            -0.00060
           H8Y8            -0.00177
           H8Z8             0.00085
           H9X9             0.59930
           H9Y9             0.75685
           H9Z9            -0.03934


 Normal Modes of low/zero frequencies

                                  1           2           3           4           5
 Wavenumbers [cm-1]            0.00        0.00        0.00        0.00        0.00
 Intensities [km/mol]          0.00        0.00        0.00        0.00        0.00
 Intensities [relative]        0.00        0.00        0.00        0.00        0.00
           O1X1            -0.00000     0.20963    -0.00000    -0.00000     0.00000
           O1Y1             0.22419     0.00472     0.01024    -0.00668    -0.01459
           O1Z1            -0.00288     0.02214     0.10614     0.03078     0.03606
           C2X2            -0.00325     0.10441    -0.00301     0.08396     0.02315
           C2Y2             0.04291    -0.01078     0.13376    -0.06604     0.02537
           C2Z2             0.00886    -0.05056     0.09446     0.09434     0.04922
           C3X3             0.00701    -0.01085    -0.03079     0.18198     0.06149
           C3Y3             0.00567     0.00483    -0.01900    -0.08665     0.21798
           C3Z3             0.00112     0.02263     0.10675     0.03184     0.03164
           H4X4            -0.09094     0.08965     0.15100     0.05752    -0.05554
           H4Y4            -0.01348    -0.02251     0.23761    -0.08142    -0.02993
           H4Z4             0.09306    -0.10555     0.09537     0.16996    -0.02062
           H5X5             0.07853     0.12474    -0.14612     0.10328     0.09490
           H5Y5            -0.01849    -0.02378     0.24906    -0.08268    -0.03713
           H5Z5            -0.06419    -0.11154     0.07396     0.11733     0.14811
           H6X6             0.00873    -0.08977    -0.04042     0.24678     0.08276
           H6Y6            -0.13587    -0.00775     0.08187    -0.13279     0.24459
           H6Z6             0.00633    -0.03633     0.09672     0.08181     0.04689
           H7X7             0.09493     0.00298    -0.18531     0.20927     0.14062
           H7Y7             0.06000     0.01633    -0.12105    -0.07193     0.27331
           H7Z7            -0.08321     0.07660     0.10565    -0.04299     0.10198
           H8X8            -0.07536    -0.03325     0.11318     0.16407    -0.01030
           H8Y8             0.06492     0.01778    -0.13414    -0.07078     0.28231
           H8Z8             0.07482     0.08339     0.12730     0.00927    -0.06784
           H9X9            -0.07179     0.19817     0.12615    -0.02215    -0.06458
           H9Y9             0.28328     0.01591    -0.08818     0.00992     0.03258
           H9Z9             0.06099     0.07461     0.12392     0.01136    -0.05010

                                  6
 Wavenumbers [cm-1]            0.00
 Intensities [km/mol]          0.00
 Intensities [relative]        0.00
           O1X1             0.00000
           O1Y1             0.01139
           O1Z1            -0.09354
           C2X2             0.05729
           C2Y2             0.13613
           C2Z2            -0.06296
           C3X3             0.10012
           C3Y3             0.02028
           C3Z3            -0.09393
           H4X4             0.19098
           H4Y4             0.22690
           H4Z4            -0.04317
           H5X5            -0.07070
           H5Y5             0.23673
           H5Z5            -0.03364
           H6X6             0.13709
           H6Y6             0.12120
           H6Z6            -0.06894
           H7X7            -0.03346
           H7Y7            -0.06874
           H7Z7            -0.11328
           H8X8             0.22998
           H8Y8            -0.07986
           H8Z8            -0.12318
           H9X9             0.10915
           H9Y9            -0.07546
           H9Z9            -0.11882


 Frequencies dumped to record   5400.2
 Frequency information read from record  5400.2

 Zero point energy:  0.08528155 [H]    18717.14 [1/CM]      223.91 [KJ/MOL]


 **********************************************************************************************************************************
 DATASETS  * FILE   NREC   LENGTH (MB)   RECORD NAMES
              1      19       59.79       500      610      700      900      950      970     1000      129      960     1100   
                                          VAR    BASINP    GEOM    SYMINP    ZMAT    AOBASIS   BASIS     P2S    ABASIS      S 
                                         1400     1410     1200     1210     1080     1600     1650     1300     1700   
                                           T        V       H0       H01     AOSYM     SMH    MOLCAS    ERIS     OPER   

              2       7        0.77       700     1000      520     2100     5300     5450     5400   
                                         GEOM     BASIS   MCVARS     RHF     HESS     NMOD     FREQ   

              4       5        3.44      4100     4000     4200     4300     4400   

 PROGRAMS   *        TOTAL      FREQ      OPTG    HF-SCF       INT
 CPU TIMES  *        42.94     27.69     13.73      0.57      0.83
 REAL TIME  *        45.94 SEC
 DISK USED  *       157.87 MB
 **********************************************************************************************************************************

 Dump information in style MOLDEN to ethanol.molden                                                                  

 Molecular orbitals read from record     2100.2  Type=RHF/CANONICAL  
 Occupation numbers read from record     2100.2  Type=RHF/RHF  
 Orbital energies read from record       2100.2  Type=RHF/CANONICAL  
 Redundancy group numbers read from rec  2100.2  Type=RHF/RHF  

 DUMP ORBITAL  1.1 AS ORBITAL    1  occ=    2.0000  eig=  -20.5406  GROUP=   2
 DUMP ORBITAL  2.1 AS ORBITAL    2  occ=    2.0000  eig=  -11.2699  GROUP=   2
 DUMP ORBITAL  3.1 AS ORBITAL    3  occ=    2.0000  eig=  -11.2150  GROUP=   2
 DUMP ORBITAL  4.1 AS ORBITAL    4  occ=    2.0000  eig=   -1.3633  GROUP=   2
 DUMP ORBITAL  5.1 AS ORBITAL    5  occ=    2.0000  eig=   -1.0127  GROUP=   2
 DUMP ORBITAL  6.1 AS ORBITAL    6  occ=    2.0000  eig=   -0.8516  GROUP=   2
 DUMP ORBITAL  7.1 AS ORBITAL    7  occ=    2.0000  eig=   -0.6908  GROUP=   2
 DUMP ORBITAL  8.1 AS ORBITAL    8  occ=    2.0000  eig=   -0.6256  GROUP=   2
 DUMP ORBITAL  9.1 AS ORBITAL    9  occ=    2.0000  eig=   -0.6073  GROUP=   2
 DUMP ORBITAL 10.1 AS ORBITAL   10  occ=    2.0000  eig=   -0.5445  GROUP=   2
 DUMP ORBITAL 11.1 AS ORBITAL   11  occ=    2.0000  eig=   -0.5269  GROUP=   2
 DUMP ORBITAL 12.1 AS ORBITAL   12  occ=    2.0000  eig=   -0.4787  GROUP=   2
 DUMP ORBITAL 13.1 AS ORBITAL   13  occ=    2.0000  eig=   -0.4383  GROUP=   2

 Total charge:      26.000000
 Frequency information read from record  5400.2

 **********************************************************************************************************************************

 HF/6-311G(D,P)//HF/6-311G(D,P) energy=   -154.125558957187

    OPTG(HF-SCF)          HF-SCF
   -154.12555896   -154.12302902
 **********************************************************************************************************************************
 Molpro calculation terminated
