[Molden Format]
[Molpro variables]
_NUMVAR=  1076.000000000000    
_AVOGAD= 0.6022140760000000E+24
_BOLTZ= 0.1380649000000000E-22
_CLIGHTSI=  299792458.0000000    
_JOULE= 0.4359744722207100E-17
_JPCAL=  4.184000000000000    
_PLANCK= 0.6626070150000000E-33
_BOHR= 0.5291772109030000E-10
_ECHARG= 0.1602176634000000E-18
_ENULL= 0.8854187812800001E-11
_MU= 0.1660539066600000E-26
_EMASS= 0.9109383701500001E-30
_AMU2AU=  1822.888486217313    
_CLIGHT=  29979245800.00000    
_EV= 0.3674932217565494E-01
_KJOULE= 0.3808798847133432E-03
_KJOULE/MOL= 0.3808798847133432E-03
_CM= 0.4556335252912009E-05
_CM-1= 0.4556335252912009E-05
_DEB2SI= 0.3335640951981520E-29
_KCAL= 0.1593601437640628E-02
_KCAL/MOL= 0.1593601437640628E-02
_KELVIN= 0.3166811563455608E-05
_HERTZ= 0.1519829846057038E-15
_HZ= 0.1519829846057038E-15
_TOA= 0.5291772109030000    
_TOANG= 0.5291772109030000    
_TORAD= 0.1745329251994330E-01
_TOCM=  219474.6313631965    
_TODEBYE=  2.541746473194078    
_TOE= 0.4803204712570263E-09
_TOEV=  27.21138624598803    
_TOHERTZ=  6579683920501656.    
_TOHZ=  6579683920501656.    
_TOK=  315775.0248040668    
_TOKCAL=  627.5094740630558    
_TOKELVIN=  315775.0248040668    
_TOKJ=  2625.499639479825    
_TOKJOULE=  2625.499639479825    
_TOKG= 0.1660539066600000E-26
_ANG=  1.889726124625770    
_ANGSTROM=  1.889726124625770    
_RPAREF=  0.000000000000000    
_RPADISS=  0.000000000000000    
_IGNORE_UNDEF=  2.000000000000000    
_STRICTCHECK=  0.000000000000000    
!SEWARD=  0.000000000000000    
!MULTI=  0.000000000000000    
!DFMULTI=  0.000000000000000    
!NUMHESS=  0.000000000000000    
_SEW_ONEEL=  0.000000000000000    
_CPPDONE=FALSE
_DKROLL_DONE=  0.000000000000000    
_FNUC_DONE=  0.000000000000000    
_FOCKDONE=TRUE
_GRADONE=FALSE
_HESSDONE=TRUE
_INTDONE=TRUE
_SCFDONE=TRUE
_MODUL_BLOCK=FALSE
_MODUL_SLATER=TRUE
_MODUL_MRCC=FALSE
_MODUL_NBO6=FALSE
_MODUL_NECI=FALSE
_MODUL_AIMS=TRUE
_MODUL_HDF5=FALSE
_MODUL_GECCO=FALSE
_ISWINDOWS=FALSE
_MRCC_EXEC=
_FITC_AO_SAVED=FALSE
_FITC_MO_SAVED=FALSE
_LSTYP=SEWARD
_INTYP=INTS
_GEOMTYP=XYZ
_GRADTYP=ALASKA
_DIRECT=FALSE
_DKHO= -1.000000000000000    
_FNUC=  0.000000000000000    
_SYNCM=  0.000000000000000    
_BASIS=6-311G(D,P)
_ZCENTRE=MASS
_ZORIENT=  1.000000000000000    
_NELEC=  18.00000000000000    
!SPIN=  0.000000000000000    
_OPTCONV= 0.9150186342030404E-03
_QSDSTEP=  0.000000000000000    
_QSDIRC=  0.000000000000000    
_PROGRAM=FREQ
_CPUSTEP=  2.830000000000000    
_SYSSTEP= 0.8000000000000002E-01
_WALLSTEP=  2.930000000000000    
!DFSCF=  0.000000000000000    
!SCSGRD=  0.000000000000000    
_NCEN=  6.000000000000000    
_CPUTOT=  5.470000000000000    
_DFTEXFAC=  1.000000000000000    
_DMX=  0.000000000000000    
_DMY= 0.6119836586624177    
_DMZ= 0.3803664283912256    
_DMX_SCF=  0.000000000000000    
_DMY_SCF= 0.6119836586624177    
_DMZ_SCF= 0.3803664283912256    
_FREQUENCIES= 0.3205313756295148E-04
_HOMO=  2.200000000000000    
_EHOMO=-0.4448995645644274    
_LUMO=  8.100000000000000    
_ELUMO= 0.1554946400509949    
_ENERGY= -115.0758120061832    
_ENERGY_METHOD=HF
_ENERGY_BASIS=6-311G(D,P)
_GEOMETRY_METHOD=HF
_GEOMETRY_BASIS=6-311G(D,P)
_ENUC=  40.81938810047358    
_GRADENERG= -115.0758119183995    
_GRADEXFAC=  9999.000000000000    
_GRADMETHOD=  1.000000000000000    
_NMRMETHOD=  0.000000000000000    
_NMRMAGNET=  0.000000000000000    
_VIRIAL= 0.9190069014327031E-03
!GRID_FREEZE= -1.000000000000000    
!NEESE_INDEX=  0.000000000000000    
_ITERATIONS=  10.00000000000000    
_LASTNELEC=  18.00000000000000    
_LASTSPIN=  0.000000000000000    
_LASTSYM=  1.000000000000000    
_MPP_PROG=  0.000000000000000    
_MSNSTATES=  0.000000000000000    
_RS2PHASE=  0.000000000000000    
_NPROC_MPP=  1.000000000000000    
_NPROC_SMP=  6.000000000000000    
_NUMSTEP=  0.000000000000000    
_OPTCONVMX= 0.6086906714713105E-03
_OPTCONVRMS= 0.3235079405785114E-03
_OPTGRAD= 0.3055780967383800E-03
_OPTGRADMX= 0.2011583053503001E-03
_OPTGRADRMS= 0.1080381721928937E-03
!GMAXLAST= 0.2011583053503001E-03
!DMAXLAST= 0.6086906714713105E-03
!DELAST= 0.3445213735631114E-05
_OPTSTEP=  4.000000000000000    
_ORBITAL=  2100.200000000000    
_PI=  3.141592653589793    
_SEIG_MIN= 0.8484582828992287E-02
_SEWPROP=TRUE
_STATUS=  1.000000000000000    
_SYSTOT= 0.3900000000000000    
_VERSION=  2024001.000000000    
_WALLTOT=  5.960000000000000    
_ZPE= 0.5486122914549211E-01
_DATE=18-Oct-24
_LASTORB=0
_OUTPUT=/home/lme/Theoretische_Chemie/Paper/Calc_Paper/methanol/CH3OH.molpro/run/CH3OH_1.molpro/CH3OH_1.out
_PGROUP=Cs
_TIME=14:49:12
_LIBMOL=/usr/local/molpro/molpro_2024.1.0_sockets/lib/
_VIGRDC=  0.000000000000000    
!VIBCNT=  0.000000000000000    
!SURFREC=  0.000000000000000    
!XSURFREC=  0.000000000000000    
!XPOLYREC=  0.000000000000000    
!ROTREC=  0.000000000000000    
!POLYREC=  0.000000000000000    
!DIPREC=  0.000000000000000    
!DIP4DREC=  0.000000000000000    
!DIPROT=  0.000000000000000    
!DIP4DROT=  0.000000000000000    
!PTREC=  0.000000000000000    
!PT4DREC=  0.000000000000000    
!VSCFREC=  0.000000000000000    
!VCIREC=  0.000000000000000    
!PVCIREC=  0.000000000000000    
!VMP2REC=  0.000000000000000    
!VMCSCFREC=  0.000000000000000    
!VMRCIREC=  0.000000000000000    
!VIBSTATEREC=  0.000000000000000    
!VIBSTATECNT=  0.000000000000000    
!VIBINFO=  0.000000000000000    
!GAREC=  0.000000000000000    
!SCFORB=  21002.00000000000    
!DEFCORE=  2.000000000000000    
!SCORE=  0.000000000000000    
!NEWMOL=  0.000000000000000    
!NEWSYM=  0.000000000000000    
_SLFILES=slscratch
_NGSSTO=  9.000000000000000    
_SIN=SIN
_COS=COS
_TAN=TAN
_ACOS=ACOS
_ASIN=ASIN
_ATAN=ATAN
_COSH=COSH
_SINH=SINH
_TANH=TANH
_ABS=ABS
_MOD=MOD
_ERF=ERF
_REFC=REFC
_ERFC=ERFC
_HYPOT=HYPOT
_J0=J0
_J1=J1
_JN=JN
_GAMMA=GAMMA
_LGAMMA=LGAMMA
_Y0=Y0
_Y1=Y1
_YN=YN
_EXP=EXP
_LOG=LOG
_LOG10=LOG10
_SQRT=SQRT
_INT=INT
_NINT=NINT
_MAX=MAX
_MIN=MIN
_COSMO=  0.000000000000000    
_COSMOIT=  0.000000000000000    
_COSMOES=  0.000000000000000    
_COSMOEDS=  0.000000000000000    
_COSMOEC=  0.000000000000000    
_COSMOEDCORR=  0.000000000000000    
_FEPSI=  1.000000000000000    
_SL_IsMM=  0.000000000000000    
_SL_NSYM=  2.000000000000000    
_SL_System_BitSw=  0.000000000000000    
_SL_Unique_atoms=  0.000000000000000    
_SL_GRAD=  0.000000000000000    
_SL_MAXUPD_Hess=  5.000000000000000    
_SL_N_PRINT_COD=  5.000000000000000    
_SL_PRINT_CODES=  0.000000000000000    
_SL_BasType=  0.000000000000000    
_SL_Energy_Pred=  0.000000000000000    
_SL_New_Coords=  0.000000000000000    
_SL_Total_Nuclea=  0.000000000000000    
_SL_Highest_Mltp=  0.000000000000000    
_SL_Ref_Geom=  0.000000000000000    
_SL_Symmetry_ope=  1.000000000000000    
_SL_agrad=  0.000000000000000    
_SL_GrdMax=  0.000000000000000    
_SL_GrdNorm=  0.000000000000000    
_SL_GrdRMS=  0.000000000000000    
_SL_Hss_Q=  0.000000000000000    
_SL_Hss_X=  0.000000000000000    
_SL_BMxOld=  0.000000000000000    
_SL_KtB=  0.000000000000000    
_SL_TROld=  0.000000000000000    
_SL_No_of_Intern=  0.000000000000000    
_SL_Hess=  0.000000000000000    
_SL_K=  0.000000000000000    
!LATTICE= -1.000000000000000    
!NEWLATTICE=  0.000000000000000    
!LATGRAD_VAR=FALSE
!SEW_LATTICE=  1.000000000000000    
!AIC_ONEEL=  0.000000000000000    
!LOCAL=  0.000000000000000    
!SAVEDOM= -1.000000000000000    
!RESTDOM= -1.000000000000000    
!SAVEDOM_HF= -1.000000000000000    
!RESTDOM_HF= -1.000000000000000    
!HESSREC=  5300.200000000000    
!FREQREC=  5400.200000000000    
!NMODREC=  5450.200000000000    
!GTASKS=  0.000000000000000    
!HTASKS=  0.000000000000000    
!SAVEDOM_EOM= -1.000000000000000    
!RESTDOM_EOM= -1.000000000000000    
!GRADSTATE= -1.000000000000000    
!DEBUG=  0.000000000000000    
!CFIT_CPHF=  0.000000000000000    
!RDOMAUX_CPHF=  0.000000000000000    
!THRAO_CPHF= 0.1000000000000000E-11
!THRMO_CPHF= 0.1000000000000000E-11
!THROV_CPHF= 0.1000000000000000E-13
!THRSW_CPHF= 0.1000000000000000E-11
!THRPROD_CPHF= 0.1000000000000000E-11
!THRAOPR_CPHF= 0.1000000000000000E-11
!CFIT_SCFGRD=  0.000000000000000    
!RDOMAUX_SCFGRD=  0.000000000000000    
!THRAO_SCFGRD= 0.1000000000000000E-11
!THRMO_SCFGRD= 0.1000000000000000E-11
!THROV_SCFGRD= 0.1000000000000000E-13
!THRSW_SCFGRD= 0.1000000000000000E-11
!THRPROD_SCFGRD= 0.1000000000000000E-11
!THRAOPR_SCFGRD= 0.1000000000000000E-11
!LOCFIT_SCF=  0.000000000000000    
!LOCFIT_MP2=  0.000000000000000    
_RIDOM=  0.000000000000000    
!CC2_METHOD=  0.000000000000000    
_BASIS2006=FALSE
_SVDDEL= -1.000000000000000    
_SVDDELA= -1.000000000000000    
_SVDDELP= -1.000000000000000    
_SVDDELF= -1.000000000000000    
_SVDDELS= -1.000000000000000    
_SVDDEL_ABS= -1.000000000000000    
_SVDDELA_ABS= -1.000000000000000    
_SVDDELP_ABS= -1.000000000000000    
_SVDDELF_ABS= -1.000000000000000    
_SVDDELS_ABS= -1.000000000000000    
_MAXBASIS=  0.000000000000000    
!OPT_CONICAL=  0.000000000000000    
!CLEARSP_JGRID=  0.000000000000000    
_GRDHYBR=  0.000000000000000    
_STATEGRAD=  1.000000000000000    
_4EXT_NDISKS=  1.000000000000000    
!EMBEDFLAG=  1.000000000000000    
!EMBED=FALSE
!EMBED_F12=FALSE
!EMBEDNUC=  0.000000000000000    
_EMBEDENERGY=  0.000000000000000    
!EMBED_DFC=FALSE
!NUM_VOIDS=  0.000000000000000    
_IBODY=  0.000000000000000    
_EMBE_CORR=  0.000000000000000    
!EMBED_PROJ=FALSE
!EMB_PROJ_ZMU=  1000000.000000000    
!CORRECTION_HF=  0.000000000000000    
!EMBED_AORB=  0.000000000000000    
!EMBED_NACORR=  0.000000000000000    
!EMBED_MP2=FALSE
!EMBED_TRUNC_PERTURBATION=FALSE
!EMBED_FROZEN=  0.000000000000000    
!EMBED_ACTIVE=  0.000000000000000    
_CHANGE_BASIS=FALSE
_RESTORE_BASIS=FALSE
_FIX_EMBED_GUESS=FALSE
_EMBED_SCF=FALSE
_NEOBAS=FALSE
_NEOOVE=FALSE
_PRINEO=FALSE
_HUZINAGA_T=FALSE
_HUZINAGA_F=FALSE
_HUZINAGA=FALSE
_HUZINAGA_CORRECT=FALSE
!FASTLATGRAD=  1.000000000000000    
!FASTVLAMBDA= -1.000000000000000    
!IFORCE= -1.000000000000000    
!USESYM= -1.000000000000000    
_SINDEX=  0.000000000000000    
_AVDOM_OSV=  0.000000000000000    
_AVDOM_PNO=  0.000000000000000    
_AVDOM_PNOCC=  0.000000000000000    
_AVDOM_TNO=  0.000000000000000    
_AVDOM_TNOIT=  0.000000000000000    
_AVDOM_PAO=  0.000000000000000    
_AVDOM_LMO=  0.000000000000000    
_CC2OSV_FLAG=  0.000000000000000    
_EOMCCSD_CONV=FALSE
_TMADC2_FLAG=FALSE
_PROPADC2_FLAG=FALSE
_LEN_VirQ=  0.000000000000000    
_GRDCC2LR_FLAG=FALSE
_GRDADC2_FLAG=FALSE
_RO_VGLOBAL=  0.000000000000000    
_OPT=FALSE
_FREQ=FALSE
_HESS=FALSE
_CMRCC_callName=EMPTY
_CMRCC_callCount=  0.000000000000000    
_GECCO_CIROOT=  1.000000000000000    
_SYM_CATION=  2.000000000000000    
_MON_A=FALSE
_MON_B=FALSE
_MAXGEOM=  100.0000000000000    
!MAXGEOM=  100.0000000000000    
_NCORE=  0.000000000000000    
_NLARGECORE=  0.000000000000000    
GX1=  0.000000000000000    
GY1= 0.1301587000186444E-01
GZ1= 0.7171283826100342    
GX2=  0.000000000000000    
GY2=-0.6299089316854037E-01
GZ2=-0.6799899525877019    
GX3=  0.000000000000000    
GY3= -1.000515032482943    
GZ3=  1.095770664202256    
GX4=  0.000000000000000    
GY4= 0.8053034529966534    
GZ4= -1.038904733077506    
GX5= 0.8845932964033708    
GY5= 0.5199723846520057    
GZ5=  1.098170115936967    
GX6=-0.8845932964033708    
GY6= 0.5199723846520057    
GZ6=  1.098170115936967    
CX1=  0.000000000000000    
CY1= 0.2459642957725609E-01
CZ1=  1.355176239328806    
OX2=  0.000000000000000    
OY2=-0.1190355364341017    
OZ2= -1.284994777888019    
HX3=  0.000000000000000    
HY3= -1.890699394963819    
HZ3=  2.070706450741535    
HX4=  0.000000000000000    
HY4=  1.521802973379117    
HZ4= -1.963245415093925    
HX5=  1.671639061882277    
HY5= 0.9826053993608550    
HZ5=  2.075240757369398    
HX6= -1.671639061882277    
HY6= 0.9826053993608550    
HZ6=  2.075240757369398    
[Atoms] Angs
C     1    6         0.0000000000        0.0130158700        0.7171283826
O     2    8         0.0000000000       -0.0629908932       -0.6799899526
H     3    1         0.0000000000       -1.0005150325        1.0957706642
H     4    1         0.0000000000        0.8053034530       -1.0389047331
H     5    1         0.8845932964        0.5199723847        1.0981701159
H     6    1        -0.8845932964        0.5199723847        1.0981701159
[GTO]
   1 0
 s    6  1.00
  0.4563240000D+04  0.1966650249D-02
  0.6820240000D+03  0.1523060193D-01
  0.1549730000D+03  0.7612690966D-01
  0.4445530000D+02  0.2608010331D+00
  0.1302900000D+02  0.6164620782D+00
  0.1827730000D+01  0.2210060280D+00
 s    3  1.00
  0.2096420000D+02  0.1146600807D+00
  0.4803310000D+01  0.9199996477D+00
  0.1459330000D+01 -0.3030682134D-02
 s    1  1.00
  0.4834560000D+00  0.1000000000D+01
 s    1  1.00
  0.1455850000D+00  0.1000000000D+01
 p    3  1.00
  0.2096420000D+02  0.4024869267D-01
  0.4803310000D+01  0.2375939567D+00
  0.1459330000D+01  0.8158538515D+00
 p    1  1.00
  0.4834560000D+00  0.1000000000D+01
 p    1  1.00
  0.1455850000D+00  0.1000000000D+01
 d    1  1.00
  0.6260000000D+00  0.1000000000D+01
  
   2 0
 s    6  1.00
  0.8588500000D+04  0.1895150083D-02
  0.1297230000D+04  0.1438590063D-01
  0.2992960000D+03  0.7073200310D-01
  0.8737710000D+02  0.2400010105D+00
  0.2567890000D+02  0.5947970261D+00
  0.3740040000D+01  0.2808020123D+00
 s    3  1.00
  0.4211750000D+02  0.1138890124D+00
  0.9628370000D+01  0.9208111006D+00
  0.2853320000D+01 -0.3274470358D-02
 s    1  1.00
  0.9056610000D+00  0.1000000000D+01
 s    1  1.00
  0.2556110000D+00  0.1000000000D+01
 p    3  1.00
  0.4211750000D+02  0.3651139738D-01
  0.9628370000D+01  0.2371529830D+00
  0.2853320000D+01  0.8197019412D+00
 p    1  1.00
  0.9056610000D+00  0.1000000000D+01
 p    1  1.00
  0.2556110000D+00  0.1000000000D+01
 d    1  1.00
  0.1292000000D+01  0.1000000000D+01
  
   3 0
 s    3  1.00
  0.3386500000D+02  0.2549381454D-01
  0.5094790000D+01  0.1903731086D+00
  0.1158790000D+01  0.8521614860D+00
 s    1  1.00
  0.3258400000D+00  0.1000000000D+01
 s    1  1.00
  0.1027410000D+00  0.1000000000D+01
 p    1  1.00
  0.7500000000D+00  0.1000000000D+01
  
   4 0
 s    3  1.00
  0.3386500000D+02  0.2549381454D-01
  0.5094790000D+01  0.1903731086D+00
  0.1158790000D+01  0.8521614860D+00
 s    1  1.00
  0.3258400000D+00  0.1000000000D+01
 s    1  1.00
  0.1027410000D+00  0.1000000000D+01
 p    1  1.00
  0.7500000000D+00  0.1000000000D+01
  
   5 0
 s    3  1.00
  0.3386500000D+02  0.2549381454D-01
  0.5094790000D+01  0.1903731086D+00
  0.1158790000D+01  0.8521614860D+00
 s    1  1.00
  0.3258400000D+00  0.1000000000D+01
 s    1  1.00
  0.1027410000D+00  0.1000000000D+01
 p    1  1.00
  0.7500000000D+00  0.1000000000D+01
  
   6 0
 s    3  1.00
  0.3386500000D+02  0.2549381454D-01
  0.5094790000D+01  0.1903731086D+00
  0.1158790000D+01  0.8521614860D+00
 s    1  1.00
  0.3258400000D+00  0.1000000000D+01
 s    1  1.00
  0.1027410000D+00  0.1000000000D+01
 p    1  1.00
  0.7500000000D+00  0.1000000000D+01


[MO]
 Sym=      1.1
 Ene=     -20.5412
 Spin= Alpha
 Occup=    2.000000
1 -0.000002531998304
2 -0.000033153348630
3 0.000095686248368
4 0.000572032364723
5 0.0
6 -0.000016620866578
7 -0.000029217427717
8 0.0
9 0.000038572680692
10 -0.000262745724261
11 0.0
12 -0.000147469202942
13 -0.000208131841980
14 -0.000052500405736
15 -0.000080128970813
16 0.000132629376550
17 0.0
18 0.0
19 -0.000021486938681
20 0.55143949044168
21 0.47166569320839
22 0.005655106418727
23 -0.000842726302896
24 0.0
25 0.001503411114764
26 0.000928470812697
27 0.0
28 -0.000553894519227
29 -0.000332498527884
30 0.0
31 0.000134319864500
32 -0.000183622169733
33 0.000149432291420
34 -0.000009915972003
35 -0.000139516319416
36 0.0
37 0.0
38 0.000035935127420
39 0.000030172946465
40 -0.000133268092059
41 -0.000051382885526
42 0.0
43 0.000013116242929
44 -0.000001585376719
45 0.000213447162280
46 0.000076674398130
47 0.000069100880526
48 0.0
49 -0.000041708865789
50 0.000082119313723
51 0.000009944160928
52 -0.000065841003212
53 -0.000003805139869
54 -0.000014843427263
55 0.000012558551510
56 0.000027134118091
57 0.000009944160928
58 -0.000065841003212
59 -0.000003805139869
60 0.000014843427263
61 0.000012558551510
62 0.000027134118091
 Sym=      2.1
 Ene=     -11.2656
 Spin= Alpha
 Occup=    2.000000
1 0.56343773706405
2 0.46655720724985
3 0.004145292298679
4 -0.001243919959018
5 0.0
6 0.000036330796586
7 -0.000950143481569
8 0.0
9 -0.000034792784144
10 0.000755316407526
11 0.0
12 0.000029804107984
13 -0.000137038946991
14 0.000112409927813
15 0.000164877982245
16 -0.000277287910058
17 0.0
18 0.0
19 -0.000034707589733
20 -0.000073402436620
21 -0.000132266726164
22 0.000311429781515
23 0.000337664049902
24 0.0
25 0.000015583411606
26 0.000110234083950
27 0.0
28 0.000011071479745
29 0.000560338680077
30 0.0
31 0.000015589600738
32 0.000142191497355
33 -0.000102095402338
34 -0.000122220968378
35 0.000224316370716
36 0.0
37 0.0
38 0.000049119973148
39 0.000346329790833
40 0.000042926389387
41 0.000287254561547
42 0.0
43 -0.000043518296208
44 -0.000025745120360
45 -0.000010421412803
46 0.000032586536049
47 -0.000030955639419
48 0.0
49 -0.000046749801223
50 0.000023244626899
51 0.000349908564024
52 0.000074341150545
53 0.000260325428131
54 0.000020392535491
55 0.000011710449708
56 -0.000033952447446
57 0.000349908564024
58 0.000074341150545
59 0.000260325428131
60 -0.000020392535491
61 0.000011710449708
62 -0.000033952447446
 Sym=      3.1
 Ene=      -1.3621
 Spin= Alpha
 Occup=    2.000000
1 -0.037719826415774
2 -0.061600393724822
3 0.15341702820137
4 0.001990479757907
5 0.0
6 -0.000358050681622
7 -0.041242264715151
8 0.0
9 0.000445212966574
10 -0.081147945583612
11 0.0
12 0.004616758253309
13 0.004180207439106
14 -0.014446323675516
15 -0.013793904884131
16 0.028240228559647
17 0.0
18 0.0
19 -0.000177001059171
20 -0.10952450514333
21 -0.18293039532699
22 0.51821436797056
23 0.38874172431304
24 0.0
25 0.029144485324700
26 0.019835922918323
27 0.0
28 0.049456308187286
29 0.036476508855320
30 0.0
31 0.017060109409903
32 0.028593597934661
33 -0.008040156766526
34 0.003031677941719
35 0.005008478824808
36 0.0
37 0.0
38 -0.001872080095508
39 0.014945777758455
40 0.031507276938572
41 0.001178360928007
42 0.0
43 0.007649928298391
44 -0.003627947966933
45 0.091531350163731
46 0.074847983372121
47 -0.001118849995413
48 0.0
49 -0.023205034857924
50 0.012835793595396
51 0.014899272647478
52 0.029744401245828
53 -0.000744858608177
54 -0.006538153506098
55 -0.003925919085573
56 -0.003956898827220
57 0.014899272647478
58 0.029744401245828
59 -0.000744858608177
60 0.006538153506098
61 -0.003925919085573
62 -0.003956898827220
 Sym=      4.1
 Ene=      -0.9267
 Spin= Alpha
 Occup=    2.000000
1 -0.094370461230423
2 -0.15677231903013
3 0.40792792788139
4 0.24067058409696
5 0.0
6 -0.005870934480542
7 0.028936005621289
8 0.0
9 -0.009641602650330
10 0.024465580129234
11 0.0
12 0.006354397033774
13 0.023954095612450
14 -0.000637931289716
15 0.001839428580332
16 -0.001201497290616
17 0.0
18 0.0
19 0.001966723453029
20 0.031049218913462
21 0.052185649104796
22 -0.15064759237769
23 -0.14341129585557
24 0.0
25 -0.035028570087454
26 0.084205036301658
27 0.0
28 -0.056394156069353
29 0.13407398421267
30 0.0
31 -0.021473009103962
32 0.073112217726269
33 -0.000984788372936
34 -0.010759671826248
35 0.011744460199184
36 0.0
37 0.0
38 0.006789705531814
39 0.087000792176538
40 0.12460761352640
41 0.007359887386401
42 0.0
43 0.019938581531433
44 -0.005074490559407
45 -0.075928193101815
46 -0.088776622182974
47 -0.013280982486527
48 0.0
49 0.016793054236471
50 -0.002374411507900
51 0.082506337494064
52 0.11493478594424
53 0.003690741834588
54 -0.016292932229938
55 -0.009845748587523
56 -0.005397237924409
57 0.082506337494064
58 0.11493478594424
59 0.003690741834588
60 0.016292932229938
61 -0.009845748587523
62 -0.005397237924409
 Sym=      5.1
 Ene=      -0.6945
 Spin= Alpha
 Occup=    2.000000
1 -0.012867396667692
2 -0.020883043161741
3 0.049437035001523
4 0.066711107711234
5 0.0
6 0.086783980817801
7 0.085059059313568
8 0.0
9 0.14501019851615
10 0.14524533902032
11 0.0
12 0.085608802772306
13 0.054980256267603
14 0.024009587385654
15 0.004051826688081
16 -0.028061414073734
17 0.0
18 0.0
19 -0.010951943721058
20 0.022048445774742
21 0.037552006382505
22 -0.11514117398952
23 -0.16775662794391
24 0.0
25 0.16787849857745
26 -0.095524769758083
27 0.0
28 0.25759178616014
29 -0.15050845289305
30 0.0
31 0.17259189632192
32 -0.087036877528012
33 -0.004982171449555
34 0.019532292625136
35 -0.014550121175581
36 0.0
37 0.0
38 -0.001204813983932
39 -0.023888663031719
40 -0.026160356308622
41 -0.009306374441058
42 0.0
43 -0.000415358358108
44 0.002639632123019
45 0.13539666697595
46 0.20223259505428
47 0.037050058011948
48 0.0
49 -0.023769610648206
50 0.013143521438776
51 0.068037097086636
52 0.091158630152147
53 0.023749025911650
54 -0.008397839191453
55 -0.000586714097712
56 0.000764294054265
57 0.068037097086636
58 0.091158630152147
59 0.023749025911650
60 0.008397839191453
61 -0.000586714097712
62 0.000764294054265
 Sym=      1.2
 Ene=      -0.6209
 Spin= Alpha
 Occup=    2.000000
1 0.0
2 0.0
3 0.0
4 0.0
5 0.16231111161658
6 0.0
7 0.0
8 0.26309068776148
9 0.0
10 0.0
11 0.14791225948188
12 0.0
13 0.0
14 0.0
15 0.0
16 0.0
17 0.023065424776641
18 -0.001736085433305
19 0.0
20 0.0
21 0.0
22 0.0
23 0.0
24 0.15619025903152
25 0.0
26 0.0
27 0.24352495861603
28 0.0
29 0.0
30 0.21097471123322
31 0.0
32 0.0
33 0.0
34 0.0
35 0.0
36 0.008111990646096
37 0.012060741288371
38 0.0
39 0.0
40 0.0
41 0.0
42 0.008983447176028
43 0.0
44 0.0
45 0.0
46 0.0
47 0.0
48 0.016759440336557
49 0.0
50 0.0
51 0.10842434495264
52 0.16120930665305
53 0.064059676080285
54 -0.007135222491807
55 -0.008359121516933
56 -0.004651470212194
57 -0.10842434495264
58 -0.16120930665305
59 -0.064059676080285
60 -0.007135222491807
61 0.008359121516933
62 0.004651470212194
 Sym=      6.1
 Ene=      -0.5957
 Spin= Alpha
 Occup=    2.000000
1 -0.000111900795215
2 -0.000962074229313
3 0.005830996204720
4 -0.021341860216714
5 0.0
6 0.11011333914674
7 -0.12227129583427
8 0.0
9 0.17945548276138
10 -0.21492738403267
11 0.0
12 0.13159710266560
13 -0.098644070964203
14 -0.005621696979173
15 -0.033460791739939
16 0.039082488719112
17 0.0
18 0.0
19 0.004355651138986
20 0.014454614828995
21 0.024494113796943
22 -0.073907075498451
23 -0.11021074885834
24 0.0
25 0.065658712906200
26 0.17372983326614
27 0.0
28 0.10075241012804
29 0.26863000548104
30 0.0
31 0.091497049295881
32 0.21657712577405
33 -0.006508011075338
34 -0.004351334564058
35 0.010859345639396
36 0.0
37 0.0
38 0.017671556274094
39 -0.12730907208549
40 -0.17490391470888
41 -0.062127256247429
42 0.0
43 -0.010917581230627
44 -0.000763932645969
45 -0.028387010846704
46 -0.032124940688247
47 -0.039791524012893
48 0.0
49 0.010421309882805
50 0.017584084744288
51 0.006246871497698
52 0.008289659490778
53 0.002406083824441
54 -0.002288089497132
55 0.003569396499347
56 -0.005220597358543
57 0.006246871497698
58 0.008289659490778
59 0.002406083824441
60 0.002288089497132
61 0.003569396499347
62 -0.005220597358543
 Sym=      7.1
 Ene=      -0.4979
 Spin= Alpha
 Occup=    2.000000
1 -0.004834465020342
2 -0.008382330176339
3 0.026136217749676
4 -0.018264150605239
5 0.0
6 -0.13778597894922
7 -0.041966296620210
8 0.0
9 -0.21250682923459
10 -0.077991556079572
11 0.0
12 -0.11312067401141
13 -0.013666100895152
14 -0.023606832494458
15 0.009424216879001
16 0.014182615615456
17 0.0
18 0.0
19 -0.031160332784587
20 0.024950589584306
21 0.042442011519302
22 -0.12836426612660
23 -0.22129878272578
24 0.0
25 0.16952648813942
26 0.083121274238300
27 0.0
28 0.25149885762315
29 0.12380563127563
30 0.0
31 0.23535514208089
32 0.14535569730145
33 -0.010240998100771
34 0.009738757463107
35 0.000502240637664
36 0.0
37 0.0
38 0.000819657838158
39 0.11491900593660
40 0.22072883633321
41 0.081015673086238
42 0.0
43 0.013969102050852
44 -0.009577273399383
45 0.082407122982410
46 0.15537820741309
47 0.030112918678071
48 0.0
49 -0.009994179805644
50 0.020403555895811
51 -0.072700011869280
52 -0.12275577811733
53 -0.064124423419157
54 0.010036183398160
55 -0.004862900041453
56 0.001174493091174
57 -0.072700011869280
58 -0.12275577811733
59 -0.064124423419157
60 -0.010036183398160
61 -0.004862900041453
62 0.001174493091174
 Sym=      2.2
 Ene=      -0.4449
 Spin= Alpha
 Occup=    2.000000
1 0.0
2 0.0
3 0.0
4 0.0
5 -0.10594791785647
6 0.0
7 0.0
8 -0.16204286052023
9 0.0
10 0.0
11 -0.083946327891275
12 0.0
13 0.0
14 0.0
15 0.0
16 0.0
17 -0.016569016372922
18 -0.038113375386881
19 0.0
20 0.0
21 0.0
22 0.0
23 0.0
24 0.24720091069270
25 0.0
26 0.0
27 0.37136712082097
28 0.0
29 0.0
30 0.41425988208149
31 0.0
32 0.0
33 0.0
34 0.0
35 0.0
36 0.010877803344623
37 0.003377982681352
38 0.0
39 0.0
40 0.0
41 0.0
42 -0.008382482628798
43 0.0
44 0.0
45 0.0
46 0.0
47 0.0
48 0.026692552083942
49 0.0
50 0.0
51 -0.094906070714495
52 -0.19204082493115
53 -0.083705869431091
54 0.007103014402709
55 0.008194397943346
56 0.005685050281807
57 0.094906070714495
58 0.19204082493115
59 0.083705869431091
60 0.007103014402709
61 -0.008194397943346
62 -0.005685050281807
 Sym=      8.1
 Ene=       0.1555
 Spin= Alpha
 Occup=    0.000000
1 0.030136225390117
2 0.047958315269100
3 -0.015992243799710
4 -1.74077816306929
5 0.0
6 -0.021146762129903
7 -0.060163904857613
8 0.0
9 -0.015102009145592
10 -0.062360143635516
11 0.0
12 -0.15957866621119
13 -0.23571223433852
14 0.005195046071317
15 0.002959592874670
16 -0.008154638945987
17 0.0
18 0.0
19 0.006550665165180
20 0.019247177290097
21 0.032104176379326
22 -0.081443835366329
23 -0.33772617623573
24 0.0
25 -0.045829861593432
26 0.032580819856156
27 0.0
28 -0.063798441242666
29 0.025150607897320
30 0.0
31 -0.11747099060194
32 0.21993556521127
33 0.000582997027405
34 -0.002264114534769
35 0.001681117507364
36 0.0
37 0.0
38 -0.001083632605242
39 0.001802198642778
40 0.048829381969621
41 0.45025657073723
42 0.0
43 0.005574966031863
44 -0.008881471110957
45 0.027792497414149
46 -0.10530963330360
47 0.91895706848974
48 0.0
49 0.010118281859456
50 -0.009265488970877
51 0.002715326895579
52 0.013618459386203
53 0.80720913684265
54 0.000403239426486
55 0.001792196724708
56 -0.006692373722517
57 0.002715326895579
58 0.013618459386203
59 0.80720913684265
60 -0.000403239426486
61 0.001792196724708
62 -0.006692373722517
 Sym=      9.1
 Ene=       0.1900
 Spin= Alpha
 Occup=    0.000000
1 -0.035087318044802
2 -0.056921741557986
3 0.083074120727310
4 1.23762231886282
5 0.0
6 -0.027529271843088
7 0.008275271984694
8 0.0
9 -0.013955293916284
10 -0.018983214373972
11 0.0
12 -0.28632601368031
13 0.17787075578687
14 0.001148381205614
15 0.003217562965357
16 -0.004365944170972
17 0.0
18 0.0
19 0.006431155829513
20 0.023152842903979
21 0.038229278347266
22 -0.079508837624460
23 -0.57831074258157
24 0.0
25 -0.059215319938517
26 -0.002288960695333
27 0.0
28 -0.083314552888343
29 -0.027185684224652
30 0.0
31 -0.18892643764550
32 0.043642958065225
33 0.000873524994228
34 -0.005553014934210
35 0.004679489939982
36 0.0
37 0.0
38 -0.003307968909435
39 -0.012865134952748
40 0.078783982771886
41 -1.10891365152510
42 0.0
43 0.008296575638241
44 -0.009120066261595
45 0.037288791197030
46 -0.091083687837466
47 1.23893689599972
48 0.0
49 0.000641894502904
50 -0.010678694248184
51 -0.011715114935562
52 0.076883818101590
53 -0.56311748475768
54 -0.003565765044962
55 0.001941059012715
56 -0.007891482985399
57 -0.011715114935562
58 0.076883818101590
59 -0.56311748475768
60 0.003565765044962
61 0.001941059012715
62 -0.007891482985399
 Sym=      3.2
 Ene=       0.2265
 Spin= Alpha
 Occup=    0.000000
1 0.0
2 0.0
3 0.0
4 0.0
5 -0.14198720279690
6 0.0
7 0.0
8 -0.080228710882854
9 0.0
10 0.0
11 -1.11383539088323
12 0.0
13 0.0
14 0.0
15 0.0
16 0.0
17 0.025548505588494
18 0.020770993034766
19 0.0
20 0.0
21 0.0
22 0.0
23 0.0
24 0.015165386704574
25 0.0
26 0.0
27 0.008143284410612
28 0.0
29 0.0
30 0.11334653257016
31 0.0
32 0.0
33 0.0
34 0.0
35 0.0
36 0.002657738374483
37 -0.007202277361592
38 0.0
39 0.0
40 0.0
41 0.0
42 -0.004001056222024
43 0.0
44 0.0
45 0.0
46 0.0
47 0.0
48 0.007056663186256
49 0.0
50 0.0
51 0.012316333496558
52 -0.18942198502127
53 1.92653643167717
54 0.025523707054897
55 0.017176755541266
56 0.009733698136401
57 -0.012316333496558
58 0.18942198502127
59 -1.92653643167717
60 0.025523707054897
61 -0.017176755541266
62 -0.009733698136401
 Sym=     10.1
 Ene=       0.2332
 Spin= Alpha
 Occup=    0.000000
1 -0.004516280389762
2 -0.007563513360605
3 0.014773438448136
4 0.091234999332643
5 0.0
6 0.13566759312178
7 -0.016792304443423
8 0.0
9 0.075086621360061
10 -0.023530642554380
11 0.0
12 1.08566397738200
13 -0.14228043889189
14 -0.021887813429412
15 0.026521642208023
16 -0.004633828778611
17 0.0
18 0.0
19 -0.020472198851639
20 0.009736316368648
21 0.016160362049349
22 -0.035778106613373
23 -0.24660241023077
24 0.0
25 -0.028430178964558
26 -0.010295618677451
27 0.0
28 -0.032454466791694
29 -0.019499685858726
30 0.0
31 -0.13546351751914
32 -0.031153257883850
33 -0.000535279150724
34 0.000567466167723
35 -0.000032187016999
36 0.0
37 0.0
38 0.007078771312134
39 0.017192598957602
40 -0.15894594785408
41 2.12901932491475
42 0.0
43 -0.034112837289532
44 0.009444105378016
45 0.001587089896472
46 -0.059346536869622
47 0.35388569136128
48 0.0
49 0.003052751177889
50 -0.001934223650773
51 -0.011666400550366
52 0.11169046058689
53 -1.13107050604828
54 -0.016728118225591
55 -0.004748712305980
56 -0.008746298894130
57 -0.011666400550366
58 0.11169046058689
59 -1.13107050604828
60 0.016728118225591
61 -0.004748712305980
62 -0.008746298894130
 Sym=     11.1
 Ene=       0.3471
 Spin= Alpha
 Occup=    0.000000
1 0.013516564188196
2 0.022113178095831
3 -0.009315264742934
4 -0.68569485576407
5 0.0
6 0.013283351596815
7 0.089024153412685
8 0.0
9 0.013763388923716
10 0.089047041325471
11 0.0
12 0.22640734082852
13 1.84915871446886
14 -0.007835476866474
15 -0.007783929469304
16 0.015619406335778
17 0.0
18 0.0
19 0.004815540778020
20 -0.024708280084164
21 -0.040425679806370
22 0.065282819373467
23 1.09186241155670
24 0.0
25 -0.026743376902065
26 0.12605122558032
27 0.0
28 -0.018846286033583