
                                 *****************
                                 * O   R   C   A *
                                 *****************

                                            #,                                       
                                            ###                                      
                                            ####                                     
                                            #####                                    
                                            ######                                   
                                           ########,                                 
                                     ,,################,,,,,                         
                               ,,#################################,,                 
                          ,,##########################################,,             
                       ,#########################################, ''#####,          
                    ,#############################################,,   '####,        
                  ,##################################################,,,,####,       
                ,###########''''           ''''###############################       
              ,#####''   ,,,,##########,,,,          '''####'''          '####       
            ,##' ,,,,###########################,,,                        '##       
           ' ,,###''''                  '''############,,,                           
         ,,##''                                '''############,,,,        ,,,,,,###''
      ,#''                                            '''#######################'''  
     '                                                          ''''####''''         
             ,#######,   #######,   ,#######,      ##                                
            ,#'     '#,  ##    ##  ,#'     '#,    #''#        ,####,   ,####,        
            ##       ##  ##   ,#'  ##            #'  '#       #'       #'  '#        
            ##       ##  #######   ##           ,######,      #####,   #    #        
            '#,     ,#'  ##    ##  '#,     ,#' ,#      #,     #,   #   #,  ,#        
             '#######'   ##     ##  '#######'  #'      '#     '####' # '####'        



                #########################################################
                #                        -***-                          #
                #          Department of theory and spectroscopy        #
                #                                                       #
                #                      Frank Neese                      #
                #                                                       #
                #     Directorship, Architecture, Infrastructure        #
                #                    SHARK, DRIVERS                     #
                #        Core code/Algorithms in most modules           #
                #                                                       #
                #        Max Planck Institute fuer Kohlenforschung      #
                #                Kaiser Wilhelm Platz 1                 #
                #                 D-45470 Muelheim/Ruhr                 #
                #                      Germany                          #
                #                                                       #
                #                  All rights reserved                  #
                #                        -***-                          #
                #########################################################


                         Program Version 6.0.0  -   RELEASE  -


 With contributions from (in alphabetic order):
   Daniel Aravena         : Magnetic Suceptibility
   Michael Atanasov       : Ab Initio Ligand Field Theory (pilot matlab implementation)
   Alexander A. Auer      : GIAO ZORA, VPT2 properties, NMR spectrum
   Ute Becker             : All parallelization in ORCA, NUMFREQ, NUMCALC
   Giovanni Bistoni       : ED, misc. LED, open-shell LED, HFLD
   Martin Brehm           : Molecular dynamics
   Dmytro Bykov           : pre 5.0 version of the SCF Hessian
   Marcos Casanova-Páez   : Triplet and SCS-CIS(D). UHF-(DLPNO)-IP/EA/STEOM-CCSD. UHF-CVS-IP/STEOM-CCSD
   Vijay G. Chilkuri      : MRCI spin determinant printing, contributions to CSF-ICE
   Pauline Colinet        : FMM embedding
   Dipayan Datta          : RHF DLPNO-CCSD density
   Achintya Kumar Dutta   : EOM-CC, STEOM-CC
   Nicolas Foglia         : Exact transition moments, OPA infrastructure, MCD improvements
   Dmitry Ganyushin       : Spin-Orbit,Spin-Spin,Magnetic field MRCI
   Miquel Garcia          : C-PCM and meta-GGA Hessian, CCSD/C-PCM, Gaussian charge scheme
   Tiago L. C. Gouveia    : GS-ROHF, GS-ROCIS
   Yang Guo               : DLPNO-NEVPT2, F12-NEVPT2, CIM, IAO-localization
   Andreas Hansen         : Spin unrestricted coupled pair/coupled cluster methods
   Ingolf Harden          : AUTO-CI MPn and infrastructure 
   Benjamin Helmich-Paris : MC-RPA, TRAH-(SCF,CASSCF), AVAS, COSX integrals, SCF dyn. polar.
   Lee Huntington         : MR-EOM, pCC
   Robert Izsak           : Overlap fitted RIJCOSX, COSX-SCS-MP3, EOM
   Riya Kayal             : Wick's Theorem for AUTO-CI, AUTO-CI UHF-CCSDT
   Emily Kempfer          : AUTO-CI, RHF CISDT and CCSDT
   Christian Kollmar      : KDIIS, OOCD, Brueckner-CCSD(T), CCSD density, CASPT2, CASPT2-K, improved NEVPT2
   Axel Koslowski         : Symmetry handling
   Simone Kossmann        : Meta GGA functionals, TD-DFT gradient, OOMP2, (MP2 Hessian; deprecated post 5.0)
   Lucas Lang             : DCDCAS
   Marvin Lechner         : AUTO-CI (C++ implementation), FIC-MRCC
   Spencer Leger          : CASSCF response
   Dagmar Lenk            : GEPOL surface, SMD, ORCA-2-JSON
   Dimitrios Liakos       : Extrapolation schemes; Compound Job, initial MDCI parallelization
   Dimitrios Manganas     : Further ROCIS development; embedding schemes. LFT, Crystal Embedding
   Dimitrios Pantazis     : SARC Basis sets
   Anastasios Papadopoulos: AUTO-CI, single reference methods and gradients
   Taras Petrenko         : pre 6.0 DFT Hessian and TD-DFT gradient, (ASA, deprecated), ECA, 1-Electron XAS/XES, NRVS
   Peter Pinski           : DLPNO-MP2, DLPNO-MP2 Gradient
   Christoph Reimann      : Effective Core Potentials
   Marius Retegan         : Local ZFS, SOC
   Christoph Riplinger    : Optimizer, TS searches, QM/MM, DLPNO-CCSD(T), (RO)-DLPNO pert. Triples
   Michael Roemelt        : Original ROCIS implementation
   Masaaki Saitow         : Open-shell DLPNO-CCSD energy and density
   Barbara Sandhoefer     : DKH picture change effects
   Kantharuban Sivalingam : CASSCF convergence/infrastructure, NEVPT2 and variants, FIC-MRCI
   Bernardo de Souza      : ESD, SOC TD-DFT
   Georgi Stoychev        : AutoAux, RI-MP2 NMR, DLPNO-MP2 response, X2C
   Van Anh Tran           : RI-MP2 g-tensors
   Willem Van den Heuvel  : Paramagnetic NMR
   Zikuan Wang            : NOTCH, Electric field optimization 
   Frank Wennmohs         : Technical directorship and infrastructure
   Hang Xu                : AUTO-CI-Response properties 


 We gratefully acknowledge several colleagues who have allowed us to
 interface, adapt or use parts of their codes:
   Stefan Grimme, W. Hujo, H. Kruse, P. Pracht,  : VdW corrections, initial TS optimization,
                  C. Bannwarth, S. Ehlert,         DFT functionals, gCP, sTDA/sTD-DF
                  L. Wittmann, M. Mueller
   Ed Valeev, F. Pavosevic, A. Kumar             : LibInt (2-el integral package), F12 methods
   Garnet Chan, S. Sharma, J. Yang, R. Olivares  : DMRG
   Ulf Ekstrom                                   : XCFun DFT Library
   Mihaly Kallay                                 : mrcc  (arbitrary order and MRCC methods)
   Frank Weinhold                                : gennbo (NPA and NBO analysis)
   Simon Mueller                                 : openCOSMO-RS
   Christopher J. Cramer and Donald G. Truhlar   : smd solvation model
   Lars Goerigk                                  : TD-DFT with DH, B97 family of functionals
   V. Asgeirsson, H. Jonsson                     : NEB implementation
   FAccTs GmbH                                   : IRC, NEB, NEB-TS, DLPNO-Multilevel, CI-OPT
                                                   MM, QMMM, 2- and 3-layer-ONIOM, Crystal-QMMM,
                                                   LR-CPCM, SF, NACMEs, symmetry and pop. for TD-DFT,
                                                   nearIR, NL-DFT gradient (VV10), updates on ESD,
                                                   ML-optimized integration grids, MBIS, APM,
                                                   GOAT, DOCKER, SOLVATOR, interface openCOSMO-RS
   S Lehtola, MJT Oliveira, MAL Marques          : LibXC Library
   Liviu Ungur et al                             : ANISO software


 Your calculation uses the libint2 library for the computation of 2-el integrals
 For citations please refer to: http://libint.valeyev.net

 Your ORCA version has been built with support for libXC version: 6.2.2
 For citations please refer to: https://libxc.gitlab.io

 This ORCA versions uses:
   CBLAS   interface :  Fast vector & matrix operations
   LAPACKE interface :  Fast linear algebra routines
   SCALAPACK package :  Parallel linear algebra routines
   Shared memory     :  Shared parallel matrices
   BLAS/LAPACK       :  OpenBLAS 0.3.27  USE64BITINT DYNAMIC_ARCH NO_AFFINITY Haswell SINGLE_THREADED
        Core in use  :  Haswell
   Copyright (c) 2011-2014, The OpenBLAS Project


================================================================================

----- Orbital basis set information -----
Your calculation utilizes the basis: 6-311G
   H, Li - Ne  : R. Krishnan, J. S. Binkley, R. Seeger and J. A. Pople, J. Chem. Phys. 72, 650 (1980).
   Na - Ar     : A. D. McLean and G. S. Chandler J. Chem. Phys. 72, 5639, (1980).
   K  - Ca     : J.-P. Blaudeau, M. P. McGrath, L. A. Curtiss and L. Radom, J. Chem. Phys. 107, 5016 (1997).
   Ga - Kr     : L. A. Curtiss, M. P. McGrath, J.-P. Blandeau, N. E. Davis, R. C. Binning and L. Radom, J. Chem. Phys. 103, 6104 (1995).

================================================================================
                                        WARNINGS
                       Please study these warnings very carefully!
================================================================================

WARNING: Old DensityContainer found on disk!
         Will remove this file - 
         If you want to keep old densities, please start your calculation with a different basename. 


WARNING: Geometry Optimization
  ===> : Switching off AutoStart
         For restart on a previous wavefunction, please use MOREAD

================================================================================
                                       INPUT FILE
================================================================================
NAME = methanol.inp
|  1> ! HF 6-311G OPT FREQ
|  2> * XYZ 0 1
|  3>   H      1.2001      0.0363      0.8431
|  4>   C      0.7031      0.0083     -0.1305
|  5>   H      0.9877      0.8943     -0.7114
|  6>   H      1.0155     -0.8918     -0.6742
|  7>   O     -0.6582     -0.0067      0.1730
|  8>   H     -1.1326     -0.0311     -0.6482
|  9> *
| 10> 
| 11>                          ****END OF INPUT****
================================================================================

                       *****************************
                       * Geometry Optimization Run *
                       *****************************

Geometry optimization settings:
Update method            Update   .... BFGS
Choice of coordinates    CoordSys .... (2022) Redundant Internals
Initial Hessian          InHess   .... Almloef's Model
Max. no of cycles        MaxIter  .... 50

Convergence Tolerances:
Energy Change            TolE     ....  5.0000e-06 Eh
Max. Gradient            TolMAXG  ....  3.0000e-04 Eh/bohr
RMS Gradient             TolRMSG  ....  1.0000e-04 Eh/bohr
Max. Displacement        TolMAXD  ....  4.0000e-03 bohr
RMS Displacement         TolRMSD  ....  2.0000e-03 bohr
Strict Convergence                .... False

------------------------------------------------------------------------------
                        ORCA OPTIMIZATION COORDINATE SETUP
------------------------------------------------------------------------------

The optimization will be done in redundant internal coordinates (2022)
Making redundant internal coordinates   ...  (2022 redundants) done
Evaluating the initial hessian          ...  (Almloef) done
Evaluating the coordinates              ...  done
Calculating the B-matrix                .... done
Calculating the G-matrix                .... done
Diagonalizing the G-matrix              .... done
The first mode is                       ....    3
The number of degrees of freedom        ....   12

    -----------------------------------------------------------------
                    Redundant Internal Coordinates


    -----------------------------------------------------------------
         Definition                    Initial Value    Approx d2E/dq
    -----------------------------------------------------------------
      1. B(C   1,H   0)                  1.0935         0.355531   
      2. B(H   2,C   1)                  1.0970         0.350941   
      3. B(H   3,C   1)                  1.0970         0.350973   
      4. B(O   4,C   1)                  1.3948         0.549810   
      5. B(H   5,O   4)                  0.9487         0.542007   
      6. A(H   0,C   1,H   3)          109.4430         0.289091   
      7. A(H   0,C   1,H   2)          109.4437         0.289087   
      8. A(H   0,C   1,O   4)          104.4854         0.342981   
      9. A(H   2,C   1,O   4)          112.1546         0.342235   
     10. A(H   3,C   1,O   4)          112.1456         0.342240   
     11. A(H   2,C   1,H   3)          109.0479         0.288503   
     12. A(C   1,O   4,H   5)          107.4558         0.365158   
     13. D(H   5,O   4,C   1,H   2)     61.5438         0.024093   
     14. D(H   5,O   4,C   1,H   3)    -61.5596         0.024093   
     15. D(H   5,O   4,C   1,H   0)    179.9949         0.024093   
    -----------------------------------------------------------------

Number of atoms                         .... 6
Number of degrees of freedom            .... 15


         *************************************************************
         *                GEOMETRY OPTIMIZATION CYCLE   1            *
         *************************************************************
---------------------------------
CARTESIAN COORDINATES (ANGSTROEM)
---------------------------------
  H      1.200100    0.036300    0.843100
  C      0.703100    0.008300   -0.130500
  H      0.987700    0.894300   -0.711400
  H      1.015500   -0.891800   -0.674200
  O     -0.658200   -0.006700    0.173000
  H     -1.132600   -0.031100   -0.648200

----------------------------
CARTESIAN COORDINATES (A.U.)
----------------------------
  NO LB      ZA    FRAG     MASS         X           Y           Z
   0 H     1.0000    0     1.008    2.267860    0.068597    1.593228
   1 C     6.0000    0    12.011    1.328666    0.015685   -0.246609
   2 H     1.0000    0     1.008    1.866483    1.689982   -1.344351
   3 H     1.0000    0     1.008    1.919017   -1.685258   -1.274053
   4 O     8.0000    0    15.999   -1.243818   -0.012661    0.326923
   5 H     1.0000    0     1.008   -2.140304   -0.058770   -1.224920

--------------------------------
INTERNAL COORDINATES (ANGSTROEM)
--------------------------------
 H      0   0   0     0.000000000000     0.00000000     0.00000000
 C      1   0   0     1.093476090274     0.00000000     0.00000000
 H      2   1   0     1.097013204114   109.44373761     0.00000000
 H      2   1   3     1.096988359100   109.44299419   119.44854310
 O      2   1   3     1.394802831944   104.48537341   239.71875295
 H      5   2   1     0.948693923244   107.45579790   179.99488009

---------------------------
INTERNAL COORDINATES (A.U.)
---------------------------
 H      0   0   0     0.000000000000     0.00000000     0.00000000
 C      1   0   0     2.066370344608     0.00000000     0.00000000
 H      2   1   0     2.073054521071   109.44373761     0.00000000
 H      2   1   3     2.073007570798   109.44299419   119.44854310
 O      2   1   3     2.635795363193   104.48537341   239.71875295
 H      5   2   1     1.792771699846   107.45579790   179.99488009

---------------------
BASIS SET INFORMATION
---------------------
There are 3 groups of distinct atoms

 Group   1 Type H   : 5s contracted to 3s pattern {311}
 Group   2 Type C   : 11s5p contracted to 4s3p pattern {6311/311}
 Group   3 Type O   : 11s5p contracted to 4s3p pattern {6311/311}

Atom   0H    basis set group =>   1
Atom   1C    basis set group =>   2
Atom   2H    basis set group =>   1
Atom   3H    basis set group =>   1
Atom   4O    basis set group =>   3
Atom   5H    basis set group =>   1
------------------------------------------------------------------------------
                             ORCA STARTUP CALCULATIONS
------------------------------------------------------------------------------
------------------------------------------------------------------------------
                   ___                                                        
                  /   \      - P O W E R E D   B Y -                         
                 /     \                                                     
                 |  |  |   _    _      __       _____    __    __             
                 |  |  |  | |  | |    /  \     |  _  \  |  |  /  |          
                  \  \/   | |  | |   /    \    | | | |  |  | /  /          
                 / \  \   | |__| |  /  /\  \   | |_| |  |  |/  /          
                |  |  |   |  __  | /  /__\  \  |    /   |      \           
                |  |  |   | |  | | |   __   |  |    \   |  |\   \          
                \     /   | |  | | |  |  |  |  | |\  \  |  | \   \       
                 \___/    |_|  |_| |__|  |__|  |_| \__\ |__|  \__/        
                                                                              
                      - O R C A' S   B I G   F R I E N D -                    
                                      &                                       
                       - I N T E G R A L  F E E D E R -                       
                                                                              
 v1 FN, 2020, v2 2021, v3 2022-2024                                           
------------------------------------------------------------------------------


----------------------
SHARK INTEGRAL PACKAGE
----------------------

Number of atoms                             ...      6
Number of basis functions                   ...     38
Number of shells                            ...     26
Maximum angular momentum                    ...      1
Integral batch strategy                     ... SHARK/LIBINT Hybrid
RI-J (if used) integral strategy            ... SPLIT-RIJ (Revised 2003 algorithm where possible)
Printlevel                                  ...      1
Contraction scheme used                     ... SEGMENTED contraction
Prescreening option                         ... SCHWARTZ
   Thresh                                   ... 2.500e-11
   Tcut                                     ... 2.500e-12
   Tpresel                                  ... 2.500e-12 
Coulomb Range Separation                    ... NOT USED
Exchange Range Separation                   ... NOT USED
Multipole approximations                    ... NOT USED
Finite Nucleus Model                        ... NOT USED
CABS basis                                  ... NOT available
Auxiliary Coulomb fitting basis             ... NOT available
Auxiliary J/K fitting basis                 ... NOT available
Auxiliary Correlation fitting basis         ... NOT available
Auxiliary 'external' fitting basis          ... NOT available

Checking pre-screening integrals            ... done (  0.0 sec) Dimension = 26
Check shell pair data                       ... done (  0.0 sec)
Shell pair information
Shell pair cut-off parameter TPreSel        ...   2.5e-12
Total number of shell pairs                 ...       351
Shell pairs after pre-screening             ...       351
Total number of primitive shell pairs       ...      1432
Primitive shell pairs kept                  ...      1221
          la=0 lb=0:    210 shell pairs
          la=1 lb=0:    120 shell pairs
          la=1 lb=1:     21 shell pairs

Calculating one electron integrals          ... done (  0.0 sec)
Calculating Nuclear repulsion               ... done (  0.0 sec) ENN=     40.790526704992 Eh

Diagonalization of the overlap matrix:
Smallest eigenvalue                        ... 1.231e-02
Time for diagonalization                   ...    0.000 sec
Threshold for overlap eigenvalues          ... 1.000e-07
Number of eigenvalues below threshold      ... 0
Time for construction of square roots      ...    0.000 sec
Total time needed                          ...    0.001 sec

-------------------
DFT GRID GENERATION
-------------------

General Integration Accuracy     IntAcc      ... 4.388
Radial Grid Type                 RadialGrid  ... OptM3 with GC (2021)
Angular Grid (max. ang.)         AngularGrid ... 4 (Lebedev-302)
Angular grid pruning method      GridPruning ... 4 (adaptive)
Weight generation scheme         WeightScheme... mBecke (2022)
Basis function cutoff            BFCut       ... 1.0000e-11
Integration weight cutoff        WCut        ... 1.0000e-14
Partially contracted basis set               ... off
Rotationally invariant grid construction     ... off
Angular grids for H and He will be reduced by one unit

Total number of grid points                  ...    25309
Total number of batches                      ...      399
Average number of points per batch           ...       63
Average number of grid points per atom       ...     4218
Initializing property integral containers    ... done (  0.0 sec)

SHARK setup successfully completed in   0.1 seconds

Maximum memory used throughout the entire STARTUP-calculation: 9.0 MB
-------------------------------------------------------------------------------
                                 ORCA GUESS
                   Start orbitals & Density for SCF / CASSCF
-------------------------------------------------------------------------------

------------
SCF SETTINGS
------------
Hamiltonian:
 Ab initio Hamiltonian  Method          .... Hartree-Fock(GTOs)


General Settings:
 Integral files         IntName         .... methanol
 Hartree-Fock type      HFTyp           .... RHF
 Total Charge           Charge          ....    0
 Multiplicity           Mult            ....    1
 Number of Electrons    NEL             ....   18
 Basis Dimension        Dim             ....   38
 Nuclear Repulsion      ENuc            ....     40.7905267050 Eh

Convergence Acceleration:
 AO-DIIS                CNVDIIS         .... on
   Start iteration      DIISMaxIt       ....    12
   Startup error        DIISStart       ....  0.200000
   # of expansion vecs  DIISMaxEq       ....     5
   Bias factor          DIISBfac        ....   1.050
   Max. coefficient     DIISMaxC        ....  10.000
 MO-DIIS                CNVKDIIS        .... off
 Trust-Rad. Augm. Hess. CNVTRAH         .... auto
   Auto Start mean grad. ratio tolernc. ....  1.125000
   Auto Start start iteration           ....    50
   Auto Start num. interpolation iter.  ....    10
   Max. Number of Micro iterations      ....    24
   Max. Number of Macro iterations      .... Maxiter - #DIIS iter
   Number of Davidson start vectors     ....     2
   Converg. threshold    (grad. norm)   ....   1.000e-05
   Grad. Scal. Fac. for Micro threshold ....   0.100
   Minimum threshold for Micro iter.    ....   1.000e-02
   NR start threshold (gradient norm)   ....   1.000e-04
   Initial trust radius                 ....   0.400
   Minimum AH scaling param. (alpha)    ....   1.000
   Maximum AH scaling param. (alpha)    .... 1000.000
   Quad. conv. algorithm                .... NR
   White noise on init. David. guess    .... on
   Maximum white noise                  ....   0.010
   Pseudo random numbers                .... off
   Inactive MOs                         .... canonical
   Orbital update algorithm             .... Taylor
   Preconditioner                       .... Diag
   Full preconditioner red. dimension   ....   250
 SOSCF                  CNVSOSCF        .... on
   Start iteration      SOSCFMaxIt      ....   150
   Startup grad/error   SOSCFStart      ....  0.003300
   Hessian update       SOSCFHessUp     .... L-BFGS
 Level Shifting         CNVShift        .... on
   Level shift para.    LevelShift      ....    0.2500
   Turn off err/grad.   ShiftErr        ....    0.0010
 Zerner damping         CNVZerner       .... off
 Static damping         CNVDamp         .... on
   Fraction old density DampFac         ....    0.7000
   Max. Damping (<1)    DampMax         ....    0.9800
   Min. Damping (>=0)   DampMin         ....    0.0000
   Turn off err/grad.   DampErr         ....    0.1000

SCF Procedure:
 Maximum # iterations   MaxIter         ....   125
 SCF integral mode      SCFMode         .... Direct
   Integral package                     .... SHARK and LIBINT hybrid scheme
 Reset frequency        DirectResetFreq ....    20
 Integral Threshold     Thresh          ....  2.500e-11 Eh
 Primitive CutOff       TCut            ....  2.500e-12 Eh

Convergence Tolerance:
 Convergence Check Mode ConvCheckMode   .... Total+1el-Energy
 Convergence forced     ConvForced      .... 0
 Energy Change          TolE            ....  1.000e-08 Eh
 1-El. energy change                    ....  1.000e-05 Eh
 Orbital Gradient       TolG            ....  1.000e-05
 Orbital Rotation angle TolX            ....  1.000e-05
 DIIS Error             TolErr          ....  5.000e-07

------------------------------
INITIAL GUESS: MODEL POTENTIAL
------------------------------
Loading Hartree-Fock densities                     ... done
Calculating cut-offs                               ... done
Initializing the effective Hamiltonian             ... done
Setting up the integral package (SHARK)            ... done
Starting the Coulomb interaction                   ... done (   0.0 sec)
Making the grid                                    ... done (   0.0 sec)
Mapping shells                                     ... done
Starting the XC term evaluation                    ... done (   0.0 sec)
Transforming the Hamiltonian                       ... done (   0.0 sec)
Diagonalizing the Hamiltonian                      ... done (   0.0 sec)
Back transforming the eigenvectors                 ... done (   0.0 sec)
Now organizing SCF variables                       ... done
                      ------------------
                      INITIAL GUESS DONE (   0.0 sec)
                      ------------------
             **** ENERGY FILE WAS UPDATED (methanol.en.tmp) ****
Finished Guess after   0.1 sec
Maximum memory used throughout the entire GUESS-calculation: 3.9 MB

-------------------------------------------------------------------------------------------
                                      ORCA LEAN-SCF
                              memory conserving SCF solver
-------------------------------------------------------------------------------------------

----------------------------------------D-I-I-S--------------------------------------------
Iteration    Energy (Eh)           Delta-E    RMSDP     MaxDP     DIISErr   Damp  Time(sec)
-------------------------------------------------------------------------------------------
               ***  Starting incremental Fock matrix formation  ***
    1    -114.8984120054197433     0.00e+00  4.84e-03  4.72e-02  3.48e-01  0.700   0.0
    2    -114.9424926114859034    -4.41e-02  3.45e-03  2.83e-02  2.10e-01  0.700   0.0
                               ***Turning on AO-DIIS***
    3    -114.9676325038500408    -2.51e-02  1.62e-03  1.07e-02  1.18e-01  0.700   0.0
    4    -114.9832133104890488    -1.56e-02  1.12e-03  6.20e-03  8.33e-02  0.700   0.0
    5    -114.9936784219787853    -1.05e-02  2.75e-03  1.56e-02  6.08e-02  0.000   0.0
    6    -115.0174538002177655    -2.38e-02  2.88e-04  2.11e-03  4.73e-03  0.000   0.0
                              *** Initializing SOSCF ***
---------------------------------------S-O-S-C-F--------------------------------------
Iteration    Energy (Eh)           Delta-E    RMSDP     MaxDP     MaxGrad    Time(sec)
--------------------------------------------------------------------------------------
    7    -115.0174889813683023    -3.52e-05  1.22e-04  9.07e-04  1.27e-03     0.0
               *** Restarting incremental Fock matrix formation ***
    8    -115.0174944394295551    -5.46e-06  6.51e-05  4.53e-04  2.27e-04     0.0
    9    -115.0174955838382687    -1.14e-06  4.41e-05  3.49e-04  1.86e-04     0.0
   10    -115.0174958073138214    -2.23e-07  7.46e-06  5.17e-05  3.25e-05     0.0
   11    -115.0174958192975510    -1.20e-08  1.49e-06  8.34e-06  4.31e-06     0.0
   12    -115.0174958197109447    -4.13e-10  6.52e-07  4.14e-06  2.10e-06     0.0
                 **** Energy Check signals convergence ****

               *****************************************************
               *                     SUCCESS                       *
               *           SCF CONVERGED AFTER  12 CYCLES          *
               *****************************************************

             **** ENERGY FILE WAS UPDATED (methanol.en.tmp) ****

----------------
TOTAL SCF ENERGY
----------------

Total Energy       :       -115.01749581971094 Eh           -3129.78518 eV

Components:
Nuclear Repulsion  :         40.79052670499249 Eh            1109.96666 eV
Electronic Energy  :       -155.80802252470343 Eh           -4239.75184 eV
One Electron Energy:       -237.63324665214762 Eh           -6466.32938 eV
Two Electron Energy:         81.82522412744419 Eh            2226.57755 eV

Virial components:
Potential Energy   :       -230.16124280444899 Eh           -6263.00582 eV
Kinetic Energy     :        115.14374698473806 Eh            3133.22065 eV
Virial Ratio       :          1.99890353433570

---------------
SCF CONVERGENCE
---------------

  Last Energy change         ...    4.1339e-10  Tolerance :   1.0000e-08
  Last MAX-Density change    ...    4.1413e-06  Tolerance :   1.0000e-07
  Last RMS-Density change    ...    6.5244e-07  Tolerance :   5.0000e-09
  Last DIIS Error            ...    1.2704e-03  Tolerance :   5.0000e-07
  Last Orbital Gradient      ...    2.1044e-06  Tolerance :   1.0000e-05
  Last Orbital Rotation      ...    3.9418e-06  Tolerance :   1.0000e-05


----------------
ORBITAL ENERGIES
----------------

  NO   OCC          E(Eh)            E(eV) 
   0   2.0000     -20.549682      -559.1853 
   1   2.0000     -11.277523      -306.8770 
   2   2.0000      -1.377334       -37.4792 
   3   2.0000      -0.930819       -25.3289 
   4   2.0000      -0.695853       -18.9351 
   5   2.0000      -0.627617       -17.0783 
   6   2.0000      -0.590395       -16.0655 
   7   2.0000      -0.495873       -13.4934 
   8   2.0000      -0.446302       -12.1445 
   9   0.0000       0.149893         4.0788 
  10   0.0000       0.186666         5.0794 
  11   0.0000       0.222028         6.0417 
  12   0.0000       0.228106         6.2071 
  13   0.0000       0.339707         9.2439 
  14   0.0000       0.452369        12.3096 
  15   0.0000       0.480769        13.0824 
  16   0.0000       0.585587        15.9346 
  17   0.0000       0.691698        18.8221 
  18   0.0000       0.723729        19.6937 
  19   0.0000       0.778730        21.1903 
*Only the first 10 virtual orbitals were printed.

                    ********************************
                    * MULLIKEN POPULATION ANALYSIS *
                    ********************************

-----------------------
MULLIKEN ATOMIC CHARGES
-----------------------
   0 H :    0.180314
   1 C :   -0.162385
   2 H :    0.144276
   3 H :    0.144284
   4 O :   -0.689244
   5 H :    0.382754
Sum of atomic charges:   -0.0000000

--------------------------------
MULLIKEN REDUCED ORBITAL CHARGES
--------------------------------
  0 H s       :     0.819686  s :     0.819686

  1 C s       :     3.324367  s :     3.324367
      pz      :     1.111026  p :     2.838018
      px      :     0.671021
      py      :     1.055970

  2 H s       :     0.855724  s :     0.855724

  3 H s       :     0.855716  s :     0.855716

  4 O s       :     3.914607  s :     3.914607
      pz      :     1.552387  p :     4.774637
      px      :     1.263892
      py      :     1.958358

  5 H s       :     0.617246  s :     0.617246



                     *******************************
                     * LOEWDIN POPULATION ANALYSIS *
                     *******************************

----------------------
LOEWDIN ATOMIC CHARGES
----------------------
   0 H :    0.069599
   1 C :    0.008582
   2 H :    0.043947
   3 H :    0.043946
   4 O :   -0.417564
   5 H :    0.251490

-------------------------------
LOEWDIN REDUCED ORBITAL CHARGES
-------------------------------
  0 H s       :     0.930401  s :     0.930401

  1 C s       :     2.914556  s :     2.914556
      pz      :     1.122597  p :     3.076862
      px      :     0.855700
      py      :     1.098565

  2 H s       :     0.956053  s :     0.956053

  3 H s       :     0.956054  s :     0.956054

  4 O s       :     3.553874  s :     3.553874
      pz      :     1.569230  p :     4.863690
      px      :     1.337279
      py      :     1.957181

  5 H s       :     0.748510  s :     0.748510



                      *****************************
                      * MAYER POPULATION ANALYSIS *
                      *****************************

  NA   - Mulliken gross atomic population
  ZA   - Total nuclear charge
  QA   - Mulliken gross atomic charge
  VA   - Mayer's total valence
  BVA  - Mayer's bonded valence
  FA   - Mayer's free valence

  ATOM       NA         ZA         QA         VA         BVA        FA
  0 H      0.8197     1.0000     0.1803     0.9268     0.9268     0.0000
  1 C      6.1624     6.0000    -0.1624     3.5794     3.5794     0.0000
  2 H      0.8557     1.0000     0.1443     0.9252     0.9252     0.0000
  3 H      0.8557     1.0000     0.1443     0.9252     0.9252     0.0000
  4 O      8.6892     8.0000    -0.6892     1.5659     1.5659    -0.0000
  5 H      0.6172     1.0000     0.3828     0.8227     0.8227    -0.0000

  Mayer bond orders larger than 0.100000
B(  0-H ,  1-C ) :   0.9500 B(  1-C ,  2-H ) :   0.9398 B(  1-C ,  3-H ) :   0.9398 
B(  1-C ,  4-O ) :   0.7488 B(  4-O ,  5-H ) :   0.8153 

-------
TIMINGS
-------

Total SCF time: 0 days 0 hours 0 min 0 sec 

Total time                  ....       0.341 sec
Sum of individual times     ....       0.333 sec  ( 97.6%)

SCF preparation             ....       0.016 sec  (  4.6%)
Fock matrix formation       ....       0.305 sec  ( 89.4%)
  Startup                   ....       0.000 sec  (  0.1% of F)
  Coulomb+Exchange Fock     ....       0.303 sec  ( 99.4% of F)
Diagonalization             ....       0.000 sec  (  0.0%)
Density matrix formation    ....       0.003 sec  (  0.8%)
Total Energy calculation    ....       0.000 sec  (  0.1%)
Population analysis         ....       0.001 sec  (  0.4%)
Orbital Transformation      ....       0.003 sec  (  0.8%)
Orbital Orthonormalization  ....       0.000 sec  (  0.0%)
DIIS solution               ....       0.004 sec  (  1.1%)
SOSCF solution              ....       0.002 sec  (  0.5%)
Finished LeanSCF after   0.3 sec

Maximum memory used throughout the entire LEANSCF-calculation: 5.6 MB

------------------------------------------------------------------------------
                         ORCA PROPERTY INTEGRAL CALCULATIONS
------------------------------------------------------------------------------

GBWName                                   ... methanol.gbw
Number of atoms                           ...      6
Number of basis functions                 ...     38
Max core memory                           ...   1024 MB

Dipole integrals                          ... YES
Quadrupole integrals                      ...  NO
Linear momentum integrals                 ...  NO
Angular momentum integrals                ...  NO
Higher moments length integrals           ...  NO
Higher moments velocity integrals         ...  NO
Kinetic energy integrals                  ...  NO
GIAO right hand sides                     ...  NO
GIAO dipole derivative integrals          ...  NO
SOC integrals                             ...  NO
EPR diamagnetic integrals (GIAO)          ...  NO
EPR gauge integrals                       ...  NO
Field gradient integrals                  ...  NO (   0 nuclei)
Spin-dipole/Fermi contact integrals       ...  NO (   0 nuclei)
Contact density integrals                 ...  NO (   0 nuclei)
Nucleus-orbit integrals                   ...  NO (   0 nuclei)
Geometric perturbations                   ...  NO (   6 nuclei)

Choice of electric origin   ... Center of mass
Position of electric origin ... (  0.0001,  0.0000,  0.0000) 
Choice of magnetic origin   ... GIAO
Position of magnetic origin ... (  0.0000,  0.0000,  0.0000) 

Calculating integrals                     ... Electric Dipole (Length)     done (  0.0 sec)

Property integrals calculated in   0.0 sec

Maximum memory used throughout the entire PROPINT-calculation: 2.6 MB

-------------------------   --------------------
FINAL SINGLE POINT ENERGY      -115.017495819711
-------------------------   --------------------

------------------------------------------------------------------------------
                         ORCA SCF GRADIENT CALCULATION
------------------------------------------------------------------------------

Nuc. rep. gradient        (SHARK) ... done (  0.0 sec)
HCore & Overlap gradient  (SHARK) ... done (  0.0 sec)
Two-electron gradient     (SHARK) ... done (  0.1 sec)

------------------
CARTESIAN GRADIENT
------------------

   1   H   :   -0.002365328    0.000257705    0.014257017
   2   C   :   -0.035801253   -0.000790862   -0.011468807
   3   H   :    0.001081680    0.007504507   -0.005354406
   4   H   :    0.001297908   -0.007675912   -0.005026944
   5   O   :    0.023553265    0.000666213    0.015020310
   6   H   :    0.012233727    0.000038351   -0.007427169

Difference to translation invariance:
           :   -0.0000000000    0.0000000000    0.0000000000

Difference to rotation invariance:
           :    0.0000000045   -0.0000004757    0.0000000127

Norm of the Cartesian gradient     ...    0.0527302788
RMS gradient                       ...    0.0124286459
MAX gradient                       ...    0.0358012526

-------
TIMINGS
-------

Total SCF gradient time     ....        0.129 sec

Densities                   ....       0.000 sec  (  0.0%)
One electron gradient       ....       0.007 sec  (  5.6%)
Two electron gradient       ....       0.122 sec  ( 94.3%)

Maximum memory used throughout the entire SCFGRAD-calculation: 8.2 MB
------------------------------------------------------------------------------
                         ORCA GEOMETRY RELAXATION STEP
------------------------------------------------------------------------------

Reading the OPT-File                    .... done
Getting information on internals        .... done
Copying old internal coords+grads       .... done
Making the new internal coordinates     .... (2022 redundants) done
Validating the new internal coordinates .... (2022 redundants) done
Calculating the B-matrix                .... done
Calculating the G,G- and P matrices     .... done
Transforming gradient to internals      .... done
Projecting the internal gradient        .... done
Number of atoms                         ....   6
Number of internal coordinates          ....  15
Current Energy                          ....  -115.017495820 Eh
Current gradient norm                   ....     0.052730279 Eh/bohr
Maximum allowed component of the step   ....  0.300
Current trust radius                    ....  0.300
Evaluating the initial hessian          ....  (Almloef) done
Projecting the Hessian                  .... done
Forming the augmented Hessian           .... done
Diagonalizing the augmented Hessian     .... done
Last element of RFO vector              ....  0.993636497
Lowest eigenvalues of augmented Hessian:
 -0.005294752  0.024092747  0.183894214  0.196989173  0.315572709
Length of the computed step             ....  0.113355758
The final length of the internal step   ....  0.113355758
Converting the step to Cartesian space:
 Initial RMS(Int)=    0.0292683310
Transforming coordinates:
 Iter   0:  RMS(Cart)=    0.0381810429 RMS(Int)=    0.0292475832
done
Storing new coordinates                 .... done

                                .--------------------.
          ----------------------|Geometry convergence|-------------------------
          Item                value                   Tolerance       Converged
          ---------------------------------------------------------------------
          RMS gradient        0.0123552380            0.0001000000      NO
          MAX gradient        0.0332827330            0.0003000000      NO
          RMS step            0.0292683310            0.0020000000      NO
          MAX step            0.0692441601            0.0040000000      NO
          ........................................................
          Max(Bonds)      0.0317      Max(Angles)    3.97
          Max(Dihed)        0.40      Max(Improp)    0.00
          ---------------------------------------------------------------------

The optimization has not yet converged - more geometry cycles are needed


    ---------------------------------------------------------------------------
                         Redundant Internal Coordinates
                            (Angstroem and degrees)

        Definition                    Value    dE/dq     Step     New-Value
    ----------------------------------------------------------------------------
     1. B(C   1,H   0)                1.0935  0.011626 -0.0170    1.0764   
     2. B(H   2,C   1)                1.0970  0.009177 -0.0136    1.0834   
     3. B(H   3,C   1)                1.0970  0.009159 -0.0136    1.0834   
     4. B(O   4,C   1)                1.3948 -0.033283  0.0317    1.4265   
     5. B(H   5,O   4)                0.9487  0.000310 -0.0003    0.9484   
     6. A(H   0,C   1,H   3)          109.44  0.004912   -0.77    108.67   
     7. A(H   0,C   1,H   2)          109.44  0.004911   -0.77    108.67   
     8. A(H   0,C   1,O   4)          104.49 -0.012795    2.26    106.75   
     9. A(H   2,C   1,O   4)          112.15  0.000541   -0.09    112.06   
    10. A(H   3,C   1,O   4)          112.15  0.000507   -0.09    112.06   
    11. A(H   2,C   1,H   3)          109.05  0.001791   -0.50    108.55   
    12. A(C   1,O   4,H   5)          107.46 -0.025652    3.97    111.42   
    13. D(H   5,O   4,C   1,H   2)     61.54  0.001569   -0.39     61.15   
    14. D(H   5,O   4,C   1,H   3)    -61.56 -0.001574    0.40    -61.16   
    15. D(H   5,O   4,C   1,H   0)    179.99  0.000004   -0.00    179.99   
    ----------------------------------------------------------------------------

Geometry step timings:
Preparation and reading OPT file:      0.000 s (15.380 %)
Internal coordinates            :      0.000 s ( 3.604 %)
B/P matrices and projection     :      0.000 s (17.117 %)
Hessian update/contruction      :      0.000 s (11.326 %)
Making the step                 :      0.000 s (12.677 %)
Converting the step to Cartesian:      0.000 s ( 4.569 %)
Storing new data                :      0.000 s ( 3.089 %)
Checking convergence            :      0.000 s ( 0.193 %)
Final printing                  :      0.000 s (31.789 %)
Total time                      :      0.002 s

Time for energy+gradient        :      0.761 s
Time for complete geometry iter :      0.777 s

         *************************************************************
         *                GEOMETRY OPTIMIZATION CYCLE   2            *
         *************************************************************
---------------------------------
CARTESIAN COORDINATES (ANGSTROEM)
---------------------------------
  H      1.222920    0.036306    0.826013
  C      0.718513    0.008652   -0.124514
  H      1.009673    0.881082   -0.697058
  H      1.037105   -0.877343   -0.660455
  O     -0.680652   -0.007442    0.153098
  H     -1.191959   -0.031954   -0.645284

----------------------------
CARTESIAN COORDINATES (A.U.)
----------------------------
  NO LB      ZA    FRAG     MASS         X           Y           Z
   0 H     1.0000    0     1.008    2.310984    0.068608    1.560939
   1 C     6.0000    0    12.011    1.357793    0.016349   -0.235298
   2 H     1.0000    0     1.008    1.908005    1.665003   -1.317249
   3 H     1.0000    0     1.008    1.959845   -1.657938   -1.248080
   4 O     8.0000    0    15.999   -1.286246   -0.014063    0.289314
   5 H     1.0000    0     1.008   -2.252476   -0.060385   -1.219410

--------------------------------
INTERNAL COORDINATES (ANGSTROEM)
--------------------------------
 H      0   0   0     0.000000000000     0.00000000     0.00000000
 C      1   0   0     1.076426356867     0.00000000     0.00000000
 H      2   1   0     1.083381143284   108.66560601     0.00000000
 H      2   1   3     1.083383631122   108.66549645   117.93792830
 O      2   1   3     1.426530996781   106.74118906   238.96706032
 H      5   2   1     0.948393740157   111.42319596   179.99450270

---------------------------
INTERNAL COORDINATES (A.U.)
---------------------------
 H      0   0   0     0.000000000000     0.00000000     0.00000000
 C      1   0   0     2.034151017814     0.00000000     0.00000000
 H      2   1   0     2.047293659461   108.66560601     0.00000000
 H      2   1   3     2.047298360793   108.66549645   117.93792830
 O      2   1   3     2.695752905466   106.74118906   238.96706032
 H      5   2   1     1.792204436021   111.42319596   179.99450270

------------------------------------------------------------------------------
                   ___                                                        
                  /   \      - P O W E R E D   B Y -                         
                 /     \                                                     
                 |  |  |   _    _      __       _____    __    __             
                 |  |  |  | |  | |    /  \     |  _  \  |  |  /  |          
                  \  \/   | |  | |   /    \    | | | |  |  | /  /          
                 / \  \   | |__| |  /  /\  \   | |_| |  |  |/  /          
                |  |  |   |  __  | /  /__\  \  |    /   |      \           
                |  |  |   | |  | | |   __   |  |    \   |  |\   \          
                \     /   | |  | | |  |  |  |  | |\  \  |  | \   \       
                 \___/    |_|  |_| |__|  |__|  |_| \__\ |__|  \__/        
                                                                              
                      - O R C A' S   B I G   F R I E N D -                    
                                      &                                       
                       - I N T E G R A L  F E E D E R -                       
                                                                              
 v1 FN, 2020, v2 2021, v3 2022-2024                                           
------------------------------------------------------------------------------


----------------------
SHARK INTEGRAL PACKAGE
----------------------

Number of atoms                             ...      6
Number of basis functions                   ...     38
Number of shells                            ...     26
Maximum angular momentum                    ...      1
Integral batch strategy                     ... SHARK/LIBINT Hybrid
RI-J (if used) integral strategy            ... SPLIT-RIJ (Revised 2003 algorithm where possible)
Printlevel                                  ...      1
Contraction scheme used                     ... SEGMENTED contraction
Prescreening option                         ... SCHWARTZ
   Thresh                                   ... 2.500e-11
   Tcut                                     ... 2.500e-12
   Tpresel                                  ... 2.500e-12 
Coulomb Range Separation                    ... NOT USED
Exchange Range Separation                   ... NOT USED
Multipole approximations                    ... NOT USED
Finite Nucleus Model                        ... NOT USED
CABS basis                                  ... NOT available
Auxiliary Coulomb fitting basis             ... NOT available
Auxiliary J/K fitting basis                 ... NOT available
Auxiliary Correlation fitting basis         ... NOT available
Auxiliary 'external' fitting basis          ... NOT available

Checking pre-screening integrals            ... done (  0.0 sec) Dimension = 26
Check shell pair data                       ... done (  0.0 sec)
Shell pair information
Shell pair cut-off parameter TPreSel        ...   2.5e-12
Total number of shell pairs                 ...       351
Shell pairs after pre-screening             ...       351
Total number of primitive shell pairs       ...      1432
Primitive shell pairs kept                  ...      1218
          la=0 lb=0:    210 shell pairs
          la=1 lb=0:    120 shell pairs
          la=1 lb=1:     21 shell pairs

Calculating one electron integrals          ... done (  0.0 sec)
Calculating Nuclear repulsion               ... done (  0.0 sec) ENN=     40.365508272414 Eh

Diagonalization of the overlap matrix:
Smallest eigenvalue                        ... 1.257e-02
Time for diagonalization                   ...    0.000 sec
Threshold for overlap eigenvalues          ... 1.000e-07
Number of eigenvalues below threshold      ... 0
Time for construction of square roots      ...    0.000 sec
Total time needed                          ...    0.001 sec

-------------------
DFT GRID GENERATION
-------------------

General Integration Accuracy     IntAcc      ... 4.388
Radial Grid Type                 RadialGrid  ... OptM3 with GC (2021)
Angular Grid (max. ang.)         AngularGrid ... 4 (Lebedev-302)
Angular grid pruning method      GridPruning ... 4 (adaptive)
Weight generation scheme         WeightScheme... mBecke (2022)
Basis function cutoff            BFCut       ... 1.0000e-11
Integration weight cutoff        WCut        ... 1.0000e-14
Partially contracted basis set               ... off
Rotationally invariant grid construction     ... off
Angular grids for H and He will be reduced by one unit

Total number of grid points                  ...    25307
Total number of batches                      ...      398
Average number of points per batch           ...       63
Average number of grid points per atom       ...     4218
Initializing property integral containers    ... done (  0.0 sec)

SHARK setup successfully completed in   0.1 seconds

Maximum memory used throughout the entire STARTUP-calculation: 9.0 MB
Occupation numbers will be reassigned to an Aufbau configuration
             **** ENERGY FILE WAS UPDATED (methanol.en.tmp) ****
Finished Guess after   0.0 sec
Maximum memory used throughout the entire GUESS-calculation: 2.5 MB
----------------------------------------D-I-I-S--------------------------------------------
Iteration    Energy (Eh)           Delta-E    RMSDP     MaxDP     DIISErr   Damp  Time(sec)
-------------------------------------------------------------------------------------------
               ***  Starting incremental Fock matrix formation  ***
    1    -115.0196085965813779     0.00e+00  3.57e-04  3.46e-03  1.09e-02  0.700   0.0
    2    -115.0197929356451709    -1.84e-04  3.16e-04  2.98e-03  8.39e-03  0.700   0.0
                               ***Turning on AO-DIIS***
    3    -115.0199414282464261    -1.48e-04  2.95e-04  2.65e-03  6.61e-03  0.700   0.0
    4    -115.0200563467305415    -1.15e-04  7.75e-04  6.61e-03  4.91e-03  0.000   0.0
                              *** Initializing SOSCF ***
---------------------------------------S-O-S-C-F--------------------------------------
Iteration    Energy (Eh)           Delta-E    RMSDP     MaxDP     MaxGrad    Time(sec)
--------------------------------------------------------------------------------------
    5    -115.0203830041085098    -3.27e-04  6.97e-05  3.68e-04  4.64e-04     0.0
               *** Restarting incremental Fock matrix formation ***
    6    -115.0203846147206264    -1.61e-06  3.44e-05  2.03e-04  1.22e-04     0.0
    7    -115.0203848588439826    -2.44e-07  2.10e-05  1.04e-04  5.01e-05     0.0
    8    -115.0203848948380028    -3.60e-08  3.70e-06  3.19e-05  2.38e-05     0.0
    9    -115.0203848987875119    -3.95e-09  6.60e-07  4.80e-06  2.86e-06     0.0
                 **** Energy Check signals convergence ****

               *****************************************************
               *                     SUCCESS                       *
               *           SCF CONVERGED AFTER   9 CYCLES          *
               *****************************************************

             **** ENERGY FILE WAS UPDATED (methanol.en.tmp) ****

----------------
TOTAL SCF ENERGY
----------------

Total Energy       :       -115.02038489878751 Eh           -3129.86379 eV

Components:
Nuclear Repulsion  :         40.36550827241394 Eh            1098.40132 eV
Electronic Energy  :       -155.38589317120145 Eh           -4228.26511 eV
One Electron Energy:       -236.84385287038515 Eh           -6444.84889 eV
Two Electron Energy:         81.45795969918370 Eh            2216.58377 eV

Virial components:
Potential Energy   :       -230.14169780210148 Eh           -6262.47398 eV
Kinetic Energy     :        115.12131290331396 Eh            3132.61018 eV
Virial Ratio       :          1.99912329001485

---------------
SCF CONVERGENCE
---------------

  Last Energy change         ...    3.9495e-09  Tolerance :   1.0000e-08
  Last MAX-Density change    ...    4.7959e-06  Tolerance :   1.0000e-07
  Last RMS-Density change    ...    6.6003e-07  Tolerance :   5.0000e-09
  Last DIIS Error            ...    4.6366e-04  Tolerance :   5.0000e-07
  Last Orbital Gradient      ...    2.8621e-06  Tolerance :   1.0000e-05
  Last Orbital Rotation      ...    2.9594e-06  Tolerance :   1.0000e-05


Total SCF time: 0 days 0 hours 0 min 0 sec 
Finished LeanSCF after   0.3 sec

Maximum memory used throughout the entire LEANSCF-calculation: 5.7 MB

------------------------------------------------------------------------------
                         ORCA PROPERTY INTEGRAL CALCULATIONS
------------------------------------------------------------------------------

GBWName                                   ... methanol.gbw
Number of atoms                           ...      6
Number of basis functions                 ...     38
Max core memory                           ...   1024 MB

Dipole integrals                          ... YES
Quadrupole integrals                      ...  NO
Linear momentum integrals                 ...  NO
Angular momentum integrals                ...  NO
Higher moments length integrals           ...  NO
Higher moments velocity integrals         ...  NO
Kinetic energy integrals                  ...  NO
GIAO right hand sides                     ...  NO
GIAO dipole derivative integrals          ...  NO
SOC integrals                             ...  NO
EPR diamagnetic integrals (GIAO)          ...  NO
EPR gauge integrals                       ...  NO
Field gradient integrals                  ...  NO (   0 nuclei)
Spin-dipole/Fermi contact integrals       ...  NO (   0 nuclei)
Contact density integrals                 ...  NO (   0 nuclei)
Nucleus-orbit integrals                   ...  NO (   0 nuclei)
Geometric perturbations                   ...  NO (   6 nuclei)

Choice of electric origin   ... Center of mass
Position of electric origin ... ( -0.0098, -0.0004, -0.0137) 
Choice of magnetic origin   ... GIAO
Position of magnetic origin ... (  0.0000,  0.0000,  0.0000) 

Calculating integrals                     ... Electric Dipole (Length)     done (  0.0 sec)

Property integrals calculated in   0.0 sec

Maximum memory used throughout the entire PROPINT-calculation: 2.6 MB

-------------------------   --------------------
FINAL SINGLE POINT ENERGY      -115.020384898788
-------------------------   --------------------

------------------------------------------------------------------------------
                         ORCA SCF GRADIENT CALCULATION
------------------------------------------------------------------------------

Nuc. rep. gradient        (SHARK) ... done (  0.0 sec)
HCore & Overlap gradient  (SHARK) ... done (  0.0 sec)
Two-electron gradient     (SHARK) ... done (  0.1 sec)

------------------
CARTESIAN GRADIENT
------------------

   1   H   :    0.000495021    0.000020003    0.000601015
   2   C   :   -0.005438795   -0.000116471   -0.001871090
   3   H   :    0.001307007   -0.000286889   -0.000596109
   4   H   :    0.001293243    0.000299304   -0.000608350
   5   O   :    0.000520272    0.000125947    0.005897512
   6   H   :    0.001823253   -0.000041895   -0.003422979

Difference to translation invariance:
           :   -0.0000000000   -0.0000000000    0.0000000000

Difference to rotation invariance:
           :   -0.0000000153    0.0000006735   -0.0000000272

Norm of the Cartesian gradient     ...    0.0093856139
RMS gradient                       ...    0.0022122104
MAX gradient                       ...    0.0058975119

-------
TIMINGS
-------

Total SCF gradient time     ....        0.129 sec

Densities                   ....       0.000 sec  (  0.0%)
One electron gradient       ....       0.008 sec  (  6.0%)
Two electron gradient       ....       0.121 sec  ( 94.0%)

Maximum memory used throughout the entire SCFGRAD-calculation: 8.2 MB
------------------------------------------------------------------------------
                         ORCA GEOMETRY RELAXATION STEP
------------------------------------------------------------------------------

Reading the OPT-File                    .... done
Getting information on internals        .... done
Copying old internal coords+grads       .... done
Making the new internal coordinates     .... (2022 redundants) done
Validating the new internal coordinates .... (2022 redundants) done
Calculating the B-matrix                .... done
Calculating the G,G- and P matrices     .... done
Transforming gradient to internals      .... done
Projecting the internal gradient        .... done
Number of atoms                         ....   6
Number of internal coordinates          ....  15
Current Energy                          ....  -115.020384899 Eh
Current gradient norm                   ....     0.009385614 Eh/bohr
Maximum allowed component of the step   ....  0.300
Current trust radius                    ....  0.300
Updating the Hessian (BFGS)             .... done
Forming the augmented Hessian           .... done
Diagonalizing the augmented Hessian     .... done
Last element of RFO vector              ....  0.999729196
Lowest eigenvalues of augmented Hessian:
 -0.000167757  0.024092747  0.184115298  0.196989166  0.300370823
Length of the computed step             ....  0.023277190
The final length of the internal step   ....  0.023277190
Converting the step to Cartesian space:
 Initial RMS(Int)=    0.0060101446
Transforming coordinates:
 Iter   0:  RMS(Cart)=    0.0061012328 RMS(Int)=    0.0060062637
done
Storing new coordinates                 .... done
The predicted energy change is          ....    -0.000083924
Previously predicted energy change      ....    -0.002681394
Actually observed energy change         ....    -0.002889079
Ratio of predicted to observed change   ....     1.077454319
New trust radius                        ....     0.450000000

                                .--------------------.
          ----------------------|Geometry convergence|-------------------------
          Item                value                   Tolerance       Converged
          ---------------------------------------------------------------------
          Energy change      -0.0028890791            0.0000050000      NO
          RMS gradient        0.0018738164            0.0001000000      NO
          MAX gradient        0.0060603208            0.0003000000      NO
          RMS step            0.0060101446            0.0020000000      NO
          MAX step            0.0197562181            0.0040000000      NO
          ........................................................
          Max(Bonds)      0.0025      Max(Angles)    1.13
          Max(Dihed)        0.00      Max(Improp)    0.00
          ---------------------------------------------------------------------

The optimization has not yet converged - more geometry cycles are needed


    ---------------------------------------------------------------------------
                         Redundant Internal Coordinates
                            (Angstroem and degrees)

        Definition                    Value    dE/dq     Step     New-Value
    ----------------------------------------------------------------------------
     1. B(C   1,H   0)                1.0764  0.000763 -0.0016    1.0749   
     2. B(H   2,C   1)                1.0834  0.000435 -0.0010    1.0824   
     3. B(H   3,C   1)                1.0834  0.000436 -0.0010    1.0824   
     4. B(O   4,C   1)                1.4265 -0.001818  0.0025    1.4291   
     5. B(H   5,O   4)                0.9484  0.001900 -0.0021    0.9463   
     6. A(H   0,C   1,H   3)          108.67 -0.000562    0.09    108.76   
     7. A(H   0,C   1,H   2)          108.67 -0.000564    0.09    108.76   
     8. A(H   0,C   1,O   4)          106.74 -0.000264    0.07    106.81   
     9. A(H   2,C   1,O   4)          112.06  0.001507   -0.30    111.75   
    10. A(H   3,C   1,O   4)          112.05  0.001496   -0.30    111.75   
    11. A(H   2,C   1,H   3)          108.55 -0.001689    0.34    108.89   
    12. A(C   1,O   4,H   5)          111.42 -0.006060    1.13    112.56   
    13. D(H   5,O   4,C   1,H   2)     61.15  0.000000    0.00     61.15   
    14. D(H   5,O   4,C   1,H   3)    -61.16 -0.000003    0.00    -61.16   
    15. D(H   5,O   4,C   1,H   0)    179.99  0.000001    0.00    179.99   
    ----------------------------------------------------------------------------

Geometry step timings:
Preparation and reading OPT file:      0.000 s (16.202 %)
Internal coordinates            :      0.000 s ( 3.013 %)
B/P matrices and projection     :      0.000 s (15.179 %)
Hessian update/contruction      :      0.000 s (16.543 %)
Making the step                 :      0.000 s ( 9.323 %)
Converting the step to Cartesian:      0.000 s ( 3.525 %)
Storing new data                :      0.000 s ( 2.672 %)
Checking convergence            :      0.000 s ( 1.535 %)
Final printing                  :      0.001 s (31.836 %)
Total time                      :      0.002 s

Time for energy+gradient        :      0.681 s
Time for complete geometry iter :      0.701 s

         *************************************************************
         *                GEOMETRY OPTIMIZATION CYCLE   3            *
         *************************************************************
---------------------------------
CARTESIAN COORDINATES (ANGSTROEM)
---------------------------------
  H      1.223653    0.036317    0.826084
  C      0.723226    0.008713   -0.124778
  H      1.011380    0.882247   -0.695324
  H      1.038865   -0.878384   -0.658678
  O     -0.679714   -0.007551    0.146686
  H     -1.201811   -0.032043   -0.642190

----------------------------
CARTESIAN COORDINATES (A.U.)
----------------------------
  NO LB      ZA    FRAG     MASS         X           Y           Z
   0 H     1.0000    0     1.008    2.312369    0.068630    1.561073
   1 C     6.0000    0    12.011    1.366700    0.016466   -0.235796
   2 H     1.0000    0     1.008    1.911232    1.667205   -1.313972
   3 H     1.0000    0     1.008    1.963171   -1.659905   -1.244722
   4 O     8.0000    0    15.999   -1.284473   -0.014269    0.277196
   5 H     1.0000    0     1.008   -2.271094   -0.060552   -1.213563

--------------------------------
INTERNAL COORDINATES (ANGSTROEM)
--------------------------------
 H      0   0   0     0.000000000000     0.00000000     0.00000000
 C      1   0   0     1.074861904202     0.00000000     0.00000000
 H      2   1   0     1.082412346057   108.76150974     0.00000000
 H      2   1   3     1.082413318846   108.76152935   118.45807234
 O      2   1   3     1.429055304994   106.81672310   239.22847830
 H      5   2   1     0.946314089036   112.55514386   179.99478809

---------------------------
INTERNAL COORDINATES (A.U.)
---------------------------
 H      0   0   0     0.000000000000     0.00000000     0.00000000
 C      1   0   0     2.031194630727     0.00000000     0.00000000
 H      2   1   0     2.045462898022   108.76150974     0.00000000
 H      2   1   3     2.045464736328   108.76152935   118.45807234
 O      2   1   3     2.700523156665   106.81672310   239.22847830
 H      5   2   1     1.788274464949   112.55514386   179.99478809

------------------------------------------------------------------------------
                   ___                                                        
                  /   \      - P O W E R E D   B Y -                         
                 /     \                                                     
                 |  |  |   _    _      __       _____    __    __             
                 |  |  |  | |  | |    /  \     |  _  \  |  |  /  |          
                  \  \/   | |  | |   /    \    | | | |  |  | /  /          
                 / \  \   | |__| |  /  /\  \   | |_| |  |  |/  /          
                |  |  |   |  __  | /  /__\  \  |    /   |      \           
                |  |  |   | |  | | |   __   |  |    \   |  |\   \          
                \     /   | |  | | |  |  |  |  | |\  \  |  | \   \       
                 \___/    |_|  |_| |__|  |__|  |_| \__\ |__|  \__/        
                                                                              
                      - O R C A' S   B I G   F R I E N D -                    
                                      &                                       
                       - I N T E G R A L  F E E D E R -                       
                                                                              
 v1 FN, 2020, v2 2021, v3 2022-2024                                           
------------------------------------------------------------------------------


----------------------
SHARK INTEGRAL PACKAGE
----------------------

Number of atoms                             ...      6
Number of basis functions                   ...     38
Number of shells                            ...     26
Maximum angular momentum                    ...      1
Integral batch strategy                     ... SHARK/LIBINT Hybrid
RI-J (if used) integral strategy            ... SPLIT-RIJ (Revised 2003 algorithm where possible)
Printlevel                                  ...      1
Contraction scheme used                     ... SEGMENTED contraction
Prescreening option                         ... SCHWARTZ
   Thresh                                   ... 2.500e-11
   Tcut                                     ... 2.500e-12
   Tpresel                                  ... 2.500e-12 
Coulomb Range Separation                    ... NOT USED
Exchange Range Separation                   ... NOT USED
Multipole approximations                    ... NOT USED
Finite Nucleus Model                        ... NOT USED
CABS basis                                  ... NOT available
Auxiliary Coulomb fitting basis             ... NOT available
Auxiliary J/K fitting basis                 ... NOT available
Auxiliary Correlation fitting basis         ... NOT available
Auxiliary 'external' fitting basis          ... NOT available

Checking pre-screening integrals            ... done (  0.0 sec) Dimension = 26
Check shell pair data                       ... done (  0.0 sec)
Shell pair information
Shell pair cut-off parameter TPreSel        ...   2.5e-12
Total number of shell pairs                 ...       351
Shell pairs after pre-screening             ...       351
Total number of primitive shell pairs       ...      1432
Primitive shell pairs kept                  ...      1218
          la=0 lb=0:    210 shell pairs
          la=1 lb=0:    120 shell pairs
          la=1 lb=1:     21 shell pairs

Calculating one electron integrals          ... done (  0.0 sec)
Calculating Nuclear repulsion               ... done (  0.0 sec) ENN=     40.342272331335 Eh

Diagonalization of the overlap matrix:
Smallest eigenvalue                        ... 1.258e-02
Time for diagonalization                   ...    0.001 sec
Threshold for overlap eigenvalues          ... 1.000e-07
Number of eigenvalues below threshold      ... 0
Time for construction of square roots      ...    0.000 sec
Total time needed                          ...    0.001 sec

-------------------
DFT GRID GENERATION
-------------------

General Integration Accuracy     IntAcc      ... 4.388
Radial Grid Type                 RadialGrid  ... OptM3 with GC (2021)
Angular Grid (max. ang.)         AngularGrid ... 4 (Lebedev-302)
Angular grid pruning method      GridPruning ... 4 (adaptive)
Weight generation scheme         WeightScheme... mBecke (2022)
Basis function cutoff            BFCut       ... 1.0000e-11
Integration weight cutoff        WCut        ... 1.0000e-14
Partially contracted basis set               ... off
Rotationally invariant grid construction     ... off
Angular grids for H and He will be reduced by one unit

Total number of grid points                  ...    25304
Total number of batches                      ...      399
Average number of points per batch           ...       63
Average number of grid points per atom       ...     4217
Initializing property integral containers    ... done (  0.0 sec)

SHARK setup successfully completed in   0.1 seconds

Maximum memory used throughout the entire STARTUP-calculation: 9.0 MB
Occupation numbers will be reassigned to an Aufbau configuration
             **** ENERGY FILE WAS UPDATED (methanol.en.tmp) ****
Finished Guess after   0.0 sec
Maximum memory used throughout the entire GUESS-calculation: 2.5 MB
----------------------------------------D-I-I-S--------------------------------------------
Iteration    Energy (Eh)           Delta-E    RMSDP     MaxDP     DIISErr   Damp  Time(sec)
-------------------------------------------------------------------------------------------
               ***  Starting incremental Fock matrix formation  ***
    1    -115.0204596666549008     0.00e+00  6.87e-05  5.57e-04  3.65e-03  0.700   0.0
                              *** Initializing SOSCF ***
---------------------------------------S-O-S-C-F--------------------------------------
Iteration    Energy (Eh)           Delta-E    RMSDP     MaxDP     MaxGrad    Time(sec)
--------------------------------------------------------------------------------------
    2    -115.0204668291919035    -7.16e-06  2.14e-04  1.81e-03  2.88e-03     0.0
               *** Restarting incremental Fock matrix formation ***
    3    -115.0204890107655586    -2.22e-05  7.95e-05  7.18e-04  3.43e-04     0.0
    4    -115.0204910396506790    -2.03e-06  4.50e-05  3.25e-04  1.34e-04     0.0
    5    -115.0204913365905810    -2.97e-07  6.67e-06  7.33e-05  4.48e-05     0.0
    6    -115.0204913456858122    -9.10e-09  2.11e-06  1.88e-05  2.24e-05     0.0
                 **** Energy Check signals convergence ****

               *****************************************************
               *                     SUCCESS                       *
               *           SCF CONVERGED AFTER   6 CYCLES          *
               *****************************************************

             **** ENERGY FILE WAS UPDATED (methanol.en.tmp) ****

----------------
TOTAL SCF ENERGY
----------------

Total Energy       :       -115.02049134568581 Eh           -3129.86669 eV

Components:
Nuclear Repulsion  :         40.34227233133548 Eh            1097.76904 eV
Electronic Energy  :       -155.36276367702129 Eh           -4227.63573 eV
One Electron Energy:       -236.80653646523425 Eh           -6443.83346 eV
Two Electron Energy:         81.44377278821295 Eh            2216.19773 eV

Virial components:
Potential Energy   :       -230.14406895599967 Eh           -6262.53850 eV
Kinetic Energy     :        115.12357761031387 Eh            3132.67181 eV
Virial Ratio       :          1.99910455992797

---------------
SCF CONVERGENCE
---------------

  Last Energy change         ...    9.0952e-09  Tolerance :   1.0000e-08
  Last MAX-Density change    ...    1.8798e-05  Tolerance :   1.0000e-07
  Last RMS-Density change    ...    2.1075e-06  Tolerance :   5.0000e-09
  Last DIIS Error            ...    2.8806e-03  Tolerance :   5.0000e-07
  Last Orbital Gradient      ...    2.2393e-05  Tolerance :   1.0000e-05
  Last Orbital Rotation      ...    9.9182e-06  Tolerance :   1.0000e-05


Total SCF time: 0 days 0 hours 0 min 0 sec 
Finished LeanSCF after   0.2 sec

Maximum memory used throughout the entire LEANSCF-calculation: 5.7 MB

------------------------------------------------------------------------------
                         ORCA PROPERTY INTEGRAL CALCULATIONS
------------------------------------------------------------------------------

GBWName                                   ... methanol.gbw
Number of atoms                           ...      6
Number of basis functions                 ...     38
Max core memory                           ...   1024 MB

Dipole integrals                          ... YES
Quadrupole integrals                      ...  NO
Linear momentum integrals                 ...  NO
Angular momentum integrals                ...  NO
Higher moments length integrals           ...  NO
Higher moments velocity integrals         ...  NO
Kinetic energy integrals                  ...  NO
GIAO right hand sides                     ...  NO
GIAO dipole derivative integrals          ...  NO
SOC integrals                             ...  NO
EPR diamagnetic integrals (GIAO)          ...  NO
EPR gauge integrals                       ...  NO
Field gradient integrals                  ...  NO (   0 nuclei)
Spin-dipole/Fermi contact integrals       ...  NO (   0 nuclei)
Contact density integrals                 ...  NO (   0 nuclei)
Nucleus-orbit integrals                   ...  NO (   0 nuclei)
Geometric perturbations                   ...  NO (   6 nuclei)

Choice of electric origin   ... Center of mass
Position of electric origin ... ( -0.0059, -0.0005, -0.0195) 
Choice of magnetic origin   ... GIAO
Position of magnetic origin ... (  0.0000,  0.0000,  0.0000) 

Calculating integrals                     ... Electric Dipole (Length)     done (  0.0 sec)

Property integrals calculated in   0.0 sec

Maximum memory used throughout the entire PROPINT-calculation: 2.6 MB

-------------------------   --------------------
FINAL SINGLE POINT ENERGY      -115.020491345686
-------------------------   --------------------

------------------------------------------------------------------------------
                         ORCA SCF GRADIENT CALCULATION
------------------------------------------------------------------------------

Nuc. rep. gradient        (SHARK) ... done (  0.0 sec)
HCore & Overlap gradient  (SHARK) ... done (  0.0 sec)
Two-electron gradient     (SHARK) ... done (  0.1 sec)

------------------
CARTESIAN GRADIENT
------------------

   1   H   :    0.000452643   -0.000002904   -0.000481500
   2   C   :   -0.001097165   -0.000013828    0.000047987
   3   H   :    0.000510878   -0.000363972   -0.000103803
   4   H   :    0.000498281    0.000373891   -0.000119192
   5   O   :   -0.001208690    0.000006541    0.001302089
   6   H   :    0.000844053    0.000000272   -0.000645581

Difference to translation invariance:
           :   -0.0000000000   -0.0000000000    0.0000000000

Difference to rotation invariance:
           :   -0.0000000269    0.0000009917   -0.0000000304

Norm of the Cartesian gradient     ...    0.0025952151
RMS gradient                       ...    0.0006116981
MAX gradient                       ...    0.0013020886

-------
TIMINGS
-------

Total SCF gradient time     ....        0.129 sec

Densities                   ....       0.000 sec  (  0.0%)
One electron gradient       ....       0.008 sec  (  5.9%)
Two electron gradient       ....       0.121 sec  ( 94.0%)

Maximum memory used throughout the entire SCFGRAD-calculation: 8.2 MB
------------------------------------------------------------------------------
                         ORCA GEOMETRY RELAXATION STEP
------------------------------------------------------------------------------

Reading the OPT-File                    .... done
Getting information on internals        .... done
Copying old internal coords+grads       .... done
Making the new internal coordinates     .... (2022 redundants) done
Validating the new internal coordinates .... (2022 redundants) done
Calculating the B-matrix                .... done
Calculating the G,G- and P matrices     .... done
Transforming gradient to internals      .... done
Projecting the internal gradient        .... done
Number of atoms                         ....   6
Number of internal coordinates          ....  15
Current Energy                          ....  -115.020491346 Eh
Current gradient norm                   ....     0.002595215 Eh/bohr
Maximum allowed component of the step   ....  0.300
Current trust radius                    ....  0.450
Updating the Hessian (BFGS)             .... done
Forming the augmented Hessian           .... done
Diagonalizing the augmented Hessian     .... done
Last element of RFO vector              ....  0.999929250
Lowest eigenvalues of augmented Hessian:
 -0.000028983  0.024092743  0.179256719  0.196989068  0.206326152
Length of the computed step             ....  0.011896031
The final length of the internal step   ....  0.011896031
Converting the step to Cartesian space:
 Initial RMS(Int)=    0.0030715421
Transforming coordinates:
 Iter   0:  RMS(Cart)=    0.0030773950 RMS(Int)=    0.0030701992
done
Storing new coordinates                 .... done
The predicted energy change is          ....    -0.000014493
Previously predicted energy change      ....    -0.000083924
Actually observed energy change         ....    -0.000106447
Ratio of predicted to observed change   ....     1.268371799
New trust radius                        ....     0.450000000

                                .--------------------.
          ----------------------|Geometry convergence|-------------------------
          Item                value                   Tolerance       Converged
          ---------------------------------------------------------------------
          Energy change      -0.0001064469            0.0000050000      NO
          RMS gradient        0.0006455137            0.0001000000      NO
          MAX gradient        0.0018960245            0.0003000000      NO
[...]
Static polarizability                   ...  NO

Choice of electric origin               ... Center of mass
Position of electric origin             ...    -0.001464    -0.000460    -0.023024

General magnetic properties:
Magnetizability                         ...  NO

EPR properties:
g-Tensor (aka g-matrix)                 ...  NO
Zero-Field splitting spin-orbit         ...  NO
Zero-field splitting spin-spin          ...  NO
Hyperfine couplings                     ...  NO (   0 nuclei)
Quadrupole couplings                    ...  NO (   0 nuclei)
Contact density                         ...  NO (   0 nuclei)

NMR properties:
Chemical shifts                         ...  NO (   0 nuclei)
Spin-rotation constants                 ...  NO (   0 nuclei)
Spin-spin couplings                     ...  NO (   0 nuclei,    0 pairs)

Choice of magnetic origin               ... GIAO
Position of magnetic origin             ...     0.000000     0.000000     0.000000

Properties with geometric perturbations:
SCF Hessian                             ... YES
IR spectrum                             ... YES
VCD spectrum                            ...  NO
X-ray spectroscopy properties:
SCF XES/XAS/RIXS spectra                ...  NO


-------------
DIPOLE MOMENT
-------------

Method             : SCF
Type of density    : Electron Density
Multiplicity       :   1
Irrep              :   0
Energy             :  -115.0205085340099345 Eh
Relativity type    : 
Basis              : AO
                                X                 Y                 Z
Electronic contribution:     -1.539215618      -0.018805529       0.250749894
Nuclear contribution   :      1.931555123       0.008429626      -1.045648910
                        -----------------------------------------
Total Dipole Moment    :      0.392339505      -0.010375903      -0.794899016
                        -----------------------------------------
Magnitude (a.u.)       :      0.886511360
Magnitude (Debye)      :      2.253332802



--------------------
Rotational spectrum 
--------------------
 
Rotational constants in cm-1:             4.430414             0.817139             0.791568 
Rotational constants in MHz :        132820.481715         24497.208495         23730.602064 

Dipole components along the rotational axes: 
x,y,z [a.u.] :     0.496472    -0.734451     0.000002 
x,y,z [Debye]:     1.261930    -1.866826     0.000005 

 

Dipole moment calculation done in   0.0 sec 

-----------
SCF HESSIAN
-----------

Occupied/Occupied contributions to the Hessian:
   => Occupied/Occupied contributions              ... done (  0.0 sec)
Perturbed density contributions to the Hessian:
   => Perturbed density contributions              ... done (  0.0 sec)
Explicit contributions to the Hessian:
   => Nuclear repulsion Hessian                    ... done (  0.0 sec)
   => HCore and overlap Hessian                    ... done (  0.1 sec)
   => Exact two electron integral Hessian          ... done (  0.8 sec)
   => Explicit contributions done
Dipole derivatives                                 ... done (  0.0 sec)
Mass weighting the Hessian           ... done
Calculating normal modes             ... done
Scaling frequencies                  ... done

-----------------------
VIBRATIONAL FREQUENCIES
-----------------------

Scaling factor for frequencies =  1.000000000  (already applied!)

     0:       0.00 cm**-1
     1:       0.00 cm**-1
     2:       0.00 cm**-1
     3:       0.00 cm**-1
     4:       0.00 cm**-1
     5:       0.00 cm**-1
     6:     341.12 cm**-1
     7:    1114.98 cm**-1
     8:    1148.38 cm**-1
     9:    1263.01 cm**-1
    10:    1465.48 cm**-1
    11:    1625.65 cm**-1
    12:    1652.24 cm**-1
    13:    1661.13 cm**-1
    14:    3157.63 cm**-1
    15:    3210.83 cm**-1
    16:    3289.20 cm**-1
    17:    4067.65 cm**-1


------------
NORMAL MODES
------------

These modes are the Cartesian displacements weighted by the diagonal matrix
M(i,i)=1/sqrt(m[i]) where m[i] is the mass of the displaced atom
Thus, these vectors are normalized but *not* orthogonal

                  0          1          2          3          4          5    
      0       0.000000   0.000000   0.000000   0.000000   0.000000   0.000000
      1       0.000000   0.000000   0.000000   0.000000   0.000000   0.000000
      2       0.000000   0.000000   0.000000   0.000000   0.000000   0.000000
      3       0.000000   0.000000   0.000000   0.000000   0.000000   0.000000
      4       0.000000   0.000000   0.000000   0.000000   0.000000   0.000000
      5       0.000000   0.000000   0.000000   0.000000   0.000000   0.000000
      6       0.000000   0.000000   0.000000   0.000000   0.000000   0.000000
      7       0.000000   0.000000   0.000000   0.000000   0.000000   0.000000
      8       0.000000   0.000000   0.000000   0.000000   0.000000   0.000000
      9       0.000000   0.000000   0.000000   0.000000   0.000000   0.000000
     10       0.000000   0.000000   0.000000   0.000000   0.000000   0.000000
     11       0.000000   0.000000   0.000000   0.000000   0.000000   0.000000
     12       0.000000   0.000000   0.000000   0.000000   0.000000   0.000000
     13       0.000000   0.000000   0.000000   0.000000   0.000000   0.000000
     14       0.000000   0.000000   0.000000   0.000000   0.000000   0.000000
     15       0.000000   0.000000   0.000000   0.000000   0.000000   0.000000
     16       0.000000   0.000000   0.000000   0.000000   0.000000   0.000000
     17       0.000000   0.000000   0.000000   0.000000   0.000000   0.000000
                  6          7          8          9         10         11    
      0       0.004459   0.607848  -0.463930  -0.004027   0.481650   0.558502
      1      -0.286580   0.006438  -0.003073   0.256142   0.005348   0.001907
      2       0.005959  -0.144659   0.201076  -0.005320  -0.104985  -0.329194
      3       0.000126   0.415375   0.068100   0.002067   0.042441  -0.106497
      4      -0.008189   0.005689  -0.000592  -0.132135   0.003051  -0.001780
      5       0.000169  -0.038491  -0.079786   0.002742   0.115104  -0.005505
      6       0.067017   0.100745   0.348489  -0.633049  -0.204668   0.495578
      7       0.102038   0.006777   0.044739   0.176236  -0.078218  -0.053569
      8       0.208223  -0.166934   0.138630   0.156965  -0.134034   0.188450
      9      -0.070042   0.100993   0.349569   0.627397  -0.206902   0.493499
     10       0.091157  -0.010572  -0.028062   0.189213   0.066162   0.076800
     11      -0.212233  -0.166555   0.140163  -0.164552  -0.137066   0.185696
     12      -0.001062  -0.378495  -0.030778  -0.000920   0.005884  -0.016833
     13       0.068244  -0.004178  -0.000348   0.058660  -0.001724  -0.000232
     14      -0.001416   0.083215   0.006370  -0.001217  -0.087479   0.001484
     15       0.013924   0.248425  -0.557078  -0.000347  -0.669185  -0.011420
     16      -0.892208  -0.004126  -0.001015   0.021839  -0.002294  -0.000244
     17       0.018519  -0.383999   0.369734  -0.000451   0.393008  -0.002908
                 12         13         14         15         16         17    
      0      -0.011484   0.178541   0.121406  -0.000425  -0.431058   0.006615
      1       0.733441   0.000369   0.007205   0.029811  -0.024591   0.000386
      2      -0.015243  -0.116309   0.255403  -0.000536  -0.858519   0.013785
      3       0.000997   0.024516  -0.037317  -0.001469   0.028615   0.001378
      4      -0.063368  -0.000827   0.000124   0.093584   0.002236  -0.000043
      5       0.001317  -0.058099   0.034761  -0.001945   0.085802  -0.003142
      6       0.328863  -0.251174   0.163100  -0.173325   0.048201   0.001268
      7       0.083671   0.415757   0.558020  -0.564967   0.158049  -0.003534
      8       0.337018   0.487546  -0.347659   0.381801  -0.081689   0.002025
      9      -0.331138  -0.238399   0.180582   0.191176   0.053177   0.001157
     10       0.059279  -0.402748  -0.566431  -0.574879  -0.159777   0.003653
     11      -0.340009   0.504580  -0.324135  -0.358197  -0.075105   0.001881
     12       0.000106   0.004352  -0.001311   0.000007  -0.000871  -0.037783
     13      -0.006928  -0.000205  -0.000019  -0.000479  -0.000048  -0.001630
     14       0.000146  -0.013139   0.000019   0.000010  -0.001640  -0.050147
     15       0.000191  -0.050162   0.000385  -0.000038   0.002546   0.574240
     16      -0.011360  -0.000262   0.000034   0.002528   0.000437   0.025890
     17       0.000234   0.025011   0.001881  -0.000052   0.018957   0.815690


-----------
IR SPECTRUM
-----------

 Mode   freq       eps      Int      T**2         TX        TY        TZ
       cm**-1   L/(mol*cm) km/mol    a.u.
----------------------------------------------------------------------------
  6:    341.12   0.040586  205.10  0.037129  ( 0.003012 -0.192624  0.004008)
  7:   1114.98   0.025524  128.99  0.007144  ( 0.082572  0.000912 -0.018020)
  8:   1148.38   0.003985   20.14  0.001083  (-0.030663 -0.000231  0.011937)
  9:   1263.01   0.000485    2.45  0.000120  ( 0.000173 -0.010944  0.000226)
 10:   1465.48   0.006523   32.96  0.001389  (-0.033375 -0.000177  0.016587)
 11:   1625.65   0.001262    6.38  0.000242  (-0.015135 -0.000160  0.003621)
 12:   1652.24   0.000893    4.51  0.000169  (-0.000197  0.012982 -0.000274)
 13:   1661.13   0.001052    5.32  0.000198  ( 0.010215  0.000360  0.009654)
 14:   3157.63   0.011296   57.09  0.001116  (-0.027813 -0.000056  0.018515)
 15:   3210.83   0.017987   90.90  0.001748  (-0.000659  0.041797 -0.000867)
 16:   3289.20   0.008216   41.52  0.000780  ( 0.009746  0.000699  0.026155)
 17:   4067.65   0.004133   20.88  0.000317  ( 0.016000  0.000411  0.007803)

* The epsilon (eps) is given for a Dirac delta lineshape.
** The dipole moment derivative (T) already includes vibrational overlap.

The first frequency considered to be a vibration is 6
The total number of vibrations considered is 12


--------------------------
THERMOCHEMISTRY AT 298.15K
--------------------------

Temperature         ...   298.15 K
Pressure            ...     1.00 atm
Total Mass          ...    32.04 AMU
Quasi RRHO          ...     True
Cut-Off Frequency   ...     1.00 cm^-1

Throughout the following assumptions are being made:
  (1) The electronic state is orbitally nondegenerate
  (2) There are no thermally accessible electronically excited states
  (3) Hindered rotations indicated by low frequency modes are not
      treated as such but are treated as vibrations and this may
      cause some error
  (4) All equations used are the standard statistical mechanics
      equations for an ideal gas
  (5) All vibrations are strictly harmonic

freq.     341.12  E(vib)   ...       0.23 
freq.    1114.98  E(vib)   ...       0.01 
freq.    1148.38  E(vib)   ...       0.01 
freq.    1263.01  E(vib)   ...       0.01 
freq.    1465.48  E(vib)   ...       0.00 
freq.    1625.65  E(vib)   ...       0.00 
freq.    1652.24  E(vib)   ...       0.00 
freq.    1661.13  E(vib)   ...       0.00 
freq.    3157.63  E(vib)   ...       0.00 
freq.    3210.83  E(vib)   ...       0.00 
freq.    3289.20  E(vib)   ...       0.00 
freq.    4067.65  E(vib)   ...       0.00 

------------
INNER ENERGY
------------

The inner energy is: U= E(el) + E(ZPE) + E(vib) + E(rot) + E(trans)
    E(el)   - is the total energy from the electronic structure calculation
              = E(kin-el) + E(nuc-el) + E(el-el) + E(nuc-nuc)
    E(ZPE)  - the the zero temperature vibrational energy from the frequency calculation
    E(vib)  - the the finite temperature correction to E(ZPE) due to population
              of excited vibrational states
    E(rot)  - is the rotational thermal energy
    E(trans)- is the translational thermal energy

Summary of contributions to the inner energy U:
Electronic energy                ...   -115.02050853 Eh
Zero point energy                ...      0.05466988 Eh      34.31 kcal/mol
Thermal vibrational correction   ...      0.00044203 Eh       0.28 kcal/mol
Thermal rotational correction    ...      0.00141627 Eh       0.89 kcal/mol
Thermal translational correction ...      0.00141627 Eh       0.89 kcal/mol
-----------------------------------------------------------------------
Total thermal energy                   -114.96256409 Eh


Summary of corrections to the electronic energy:
(perhaps to be used in another calculation)
Total thermal correction                  0.00327457 Eh       2.05 kcal/mol
Non-thermal (ZPE) correction              0.05466988 Eh      34.31 kcal/mol
-----------------------------------------------------------------------
Total correction                          0.05794445 Eh      36.36 kcal/mol


--------
ENTHALPY
--------

The enthalpy is H = U + kB*T
                kB is Boltzmann's constant
Total thermal energy              ...   -114.96256409 Eh 
Thermal Enthalpy correction       ...      0.00094421 Eh       0.59 kcal/mol
-----------------------------------------------------------------------
Total Enthalpy                    ...   -114.96161988 Eh


Note: Rotational entropy computed according to Herzberg 
Infrared and Raman Spectra, Chapter V,1, Van Nostrand Reinhold, 1945 
Point Group:  Cs, Symmetry Number:   1  
Rotational constants in cm-1:     4.430414     0.817139     0.791568 

Vibrational entropy computed according to the QRRHO of S. Grimme
Chem.Eur.J. 2012 18 9955 using a reference frequency of 100.0 cm-1


-------
ENTROPY
-------

The entropy contributions are T*S = T*(S(el)+S(vib)+S(rot)+S(trans))
     S(el)   - electronic entropy
     S(vib)  - vibrational entropy
     S(rot)  - rotational entropy
     S(trans)- translational entropy
The entropies will be listed as multiplied by the temperature to get
units of energy

Electronic entropy                ...      0.00000000 Eh      0.00 kcal/mol
Vibrational entropy               ...      0.00065777 Eh      0.41 kcal/mol
Rotational entropy                ...      0.00901379 Eh      5.66 kcal/mol
Translational entropy             ...      0.01725935 Eh     10.83 kcal/mol
-----------------------------------------------------------------------
Final entropy term                ...      0.02693091 Eh     16.90 kcal/mol

In case the symmetry of your molecule has not been determined correctly
or in case you have a reason to use a different symmetry number we print 
out the resulting rotational entropy values for sn=1,12:

 non-linear molecules -----------------------------------
|  sn= 1 | S(rot)=       0.00901379 Eh      5.66 kcal/mol|
|  sn= 2 | S(rot)=       0.00835933 Eh      5.25 kcal/mol|
|  sn= 3 | S(rot)=       0.00797650 Eh      5.01 kcal/mol|
|  sn= 4 | S(rot)=       0.00770488 Eh      4.83 kcal/mol|
|  sn= 5 | S(rot)=       0.00749419 Eh      4.70 kcal/mol|
|  sn= 6 | S(rot)=       0.00732204 Eh      4.59 kcal/mol|
|  sn= 7 | S(rot)=       0.00717650 Eh      4.50 kcal/mol|
|  sn= 8 | S(rot)=       0.00705042 Eh      4.42 kcal/mol|
|  sn= 9 | S(rot)=       0.00693921 Eh      4.35 kcal/mol|
|  sn=10 | S(rot)=       0.00683973 Eh      4.29 kcal/mol|
|  sn=11 | S(rot)=       0.00674974 Eh      4.24 kcal/mol|
|  sn=12 | S(rot)=       0.00666759 Eh      4.18 kcal/mol|
 linear molecules ---------------------------------------
|  Dinfh | S(rot)=       0.00554650 Eh      3.48 kcal/mol|
|  Cinfv | S(rot)=       0.00620096 Eh      3.89 kcal/mol|
 --------------------------------------------------------


-------------------
GIBBS FREE ENERGY
-------------------

The Gibbs free energy is G = H - T*S

Total enthalpy                    ...   -114.96161988 Eh 
Total entropy correction          ...     -0.02693091 Eh    -16.90 kcal/mol
-----------------------------------------------------------------------
Final Gibbs free energy         ...   -114.98855079 Eh

For completeness - the Gibbs free energy minus the electronic energy
G-E(el)                           ...      0.03195775 Eh     20.05 kcal/mol


Maximum memory used throughout the entire PROP-calculation: 12.7 MB

--------------------------------
SUGGESTED CITATIONS FOR THIS RUN
--------------------------------

Below you find a list of papers that are relevant to this ORCA run
We neither can nor want to force you to cite these papers, but we appreciate if you do
You receive ORCA, which is the product of decades of hard work by many enthusiastic individuals, for free
The only thing we kindly ask in return is that you cite our papers,
We deeply appreciate it, if you show your appreciation for ORCA by not just citing the generic ORCA reference.

Please note that relegating all ORCA citations to the supporting information does *not* help us.
SI sections are not indexed - citations you put there will not count into any citation statistics
But we need these citations in order to attract the funding resources that allow us to do what we are doing

Therefore, if you are a happy ORCA user, please consider citing a few of the papers listed below in the main body of your paper

In addition to the list printed below, the program has created the file methanol.bibtex that contains the list in bibtex format
You can import this file easily into all common literature databanks and citation aid programs


List of essential papers. We consider these as the minimum necessary citations

  1. Neese,F.
     Software update: the ORCA program system, version 5.0
     WIRES Comput. Molec. Sci., 2022 12(1)e1606
     doi.org/10.1002/wcms.1606

List of papers to cite with high priority. The work reported in these papers was absolutely
necessary for this run to complete.
Our perspective: the developers of density functionals and basis sets usually get cited in chemistry papers
Good! But without the algorithms to do something with them, the functionals or basis sets would not do anything.
Hence, in our opinion, the algorithm design and method developments papers are equally worthy of getting cited

  1. Bykov,D.; Petrenko,T.; Izsak,R.; Kossmann,S.; Becker,U.; Valeev,E.; Neese,F.
     Efficient implementation of the analytic second derivatives of Hartree-Fock and hybrid DFT energies: a detailed analysis of different approximations
     Molec. Phys., 2015 113 1961-1977
     doi.org/10.1080/00268976.2015.1025114
  2. Neese,F.
     The SHARK Integral Generation and Digestion System
     J. Comp. Chem., 2022  1-16
     doi.org/10.1002/jcc.26942

List of suggested additional citations. These are papers that are important in the 'surrounding' of 
of this run, or papers that preceded the highly important papers. If you like your results we are grateful for a citation.

  1. Neese,F.
     The ORCA program system
     WIRES Comput. Molec. Sci., 2012 2(1)73-78
     doi.org/10.1002/wcms.81
  2. Neese,F.
     Software update: the ORCA program system, version 4.0
     WIRES Comput. Molec. Sci., 2018 8(1)1-6
     doi.org/10.1002/wcms.1327
  3. Neese,F.; Wennmohs,F.; Becker,U.; Riplinger,C.
     The ORCA quantum chemistry program package
     J. Chem. Phys., 2020 152 Art. No. L224108
     doi.org/10.1063/5.0004608

List of optional additional citations

  1. Neese,F.
     Approximate second-order SCF convergence for spin unrestricted wavefunctions
     Chem. Phys. Lett., 2000 325(1-3)93-98
     doi.org/10.1016/s0009-2614(00)00662-x

Timings for individual modules:

Sum of individual times          ...        5.625 sec (=   0.094 min)
Startup calculation              ...        0.916 sec (=   0.015 min)  16.3 %
SCF iterations                   ...        1.518 sec (=   0.025 min)  27.0 %
Property integrals               ...        0.447 sec (=   0.007 min)   8.0 %
SCF Response                     ...        1.059 sec (=   0.018 min)  18.8 %
Property calculations            ...        0.889 sec (=   0.015 min)  15.8 %
SCF Gradient evaluation          ...        0.780 sec (=   0.013 min)  13.9 %
Geometry relaxation              ...        0.014 sec (=   0.000 min)   0.2 %
                             ****ORCA TERMINATED NORMALLY****
TOTAL RUN TIME: 0 days 0 hours 0 minutes 5 seconds 779 msec
