6
* (null), Energy   -1000.0000000
H     1.220882    0.036303    0.827663   -0.862116   -0.049182   -1.717038
C     0.725915    0.008722   -0.126353    0.057230    0.004472    0.171604
H     1.012203    0.883923   -0.695291    0.096402    0.316098   -0.163378
H     1.039736   -0.880028   -0.658581    0.106354   -0.319554   -0.150210
O    -0.676712   -0.007548    0.143904   -0.001742   -0.000096   -0.003280
H    -1.206425   -0.032072   -0.639541    0.005092    0.000874    0.037914
6
* Frequency(16) 3289.2000
H     1.122907    0.030714    0.632531   -0.862116   -0.049182   -1.717038
C     0.732419    0.009230   -0.106851    0.057230    0.004472    0.171604
H     1.023159    0.919846   -0.713858    0.096402    0.316098   -0.163378
H     1.051823   -0.916344   -0.675652    0.106354   -0.319554   -0.150210
O    -0.676910   -0.007559    0.143531   -0.001742   -0.000096   -0.003280
H    -1.205846   -0.031973   -0.635232    0.005092    0.000874    0.037914
6
* Frequency(16) 3289.2000
H     1.035549    0.025730    0.458544   -0.862116   -0.049182   -1.717038
C     0.738218    0.009683   -0.089463    0.057230    0.004472    0.171604
H     1.032927    0.951876   -0.730413    0.096402    0.316098   -0.163378
H     1.062599   -0.948724   -0.690872    0.106354   -0.319554   -0.150210
O    -0.677086   -0.007569    0.143199   -0.001742   -0.000096   -0.003280
H    -1.205330   -0.031884   -0.631390    0.005092    0.000874    0.037914
6
* Frequency(16) 3289.2000
H     0.968275    0.021892    0.324557   -0.862116   -0.049182   -1.717038
C     0.742684    0.010032   -0.076072    0.057230    0.004472    0.171604
H     1.040450    0.976542   -0.743162    0.096402    0.316098   -0.163378
H     1.070899   -0.973660   -0.702594    0.106354   -0.319554   -0.150210
O    -0.677222   -0.007576    0.142943   -0.001742   -0.000096   -0.003280
H    -1.204933   -0.031816   -0.628432    0.005092    0.000874    0.037914
6
* Frequency(16) 3289.2000
H     0.928375    0.019616    0.245089   -0.862116   -0.049182   -1.717038
C     0.745333    0.010239   -0.068129    0.057230    0.004472    0.171604
H     1.044911    0.991172   -0.750724    0.096402    0.316098   -0.163378
H     1.075821   -0.988450   -0.709546    0.106354   -0.319554   -0.150210
O    -0.677303   -0.007581    0.142791   -0.001742   -0.000096   -0.003280
H    -1.204697   -0.031775   -0.626677    0.005092    0.000874    0.037914
6
* Frequency(16) 3289.2000
H     0.920172    0.019148    0.228752   -0.862116   -0.049182   -1.717038
C     0.745877    0.010282   -0.066497    0.057230    0.004472    0.171604
H     1.045828    0.994179   -0.752278    0.096402    0.316098   -0.163378
H     1.076833   -0.991490   -0.710975    0.106354   -0.319554   -0.150210
O    -0.677320   -0.007581    0.142760   -0.001742   -0.000096   -0.003280
H    -1.204649   -0.031767   -0.626316    0.005092    0.000874    0.037914
6
* Frequency(16) 3289.2000
H     0.944556    0.020539    0.277317   -0.862116   -0.049182   -1.717038
C     0.744258    0.010155   -0.071350    0.057230    0.004472    0.171604
H     1.043102    0.985239   -0.747657    0.096402    0.316098   -0.163378
H     1.073825   -0.982452   -0.706726    0.106354   -0.319554   -0.150210
O    -0.677270   -0.007579    0.142853   -0.001742   -0.000096   -0.003280
H    -1.204793   -0.031792   -0.627389    0.005092    0.000874    0.037914
6
* Frequency(16) 3289.2000
H     0.998884    0.023638    0.385520   -0.862116   -0.049182   -1.717038
C     0.740652    0.009874   -0.082164    0.057230    0.004472    0.171604
H     1.037027    0.965319   -0.737361    0.096402    0.316098   -0.163378
H     1.067123   -0.962314   -0.697261    0.106354   -0.319554   -0.150210
O    -0.677161   -0.007573    0.143059   -0.001742   -0.000096   -0.003280
H    -1.205114   -0.031847   -0.629778    0.005092    0.000874    0.037914
6
* Frequency(16) 3289.2000
H     1.077269    0.028110    0.541636   -0.862116   -0.049182   -1.717038
C     0.735448    0.009467   -0.097767    0.057230    0.004472    0.171604
H     1.028262    0.936579   -0.722507    0.096402    0.316098   -0.163378
H     1.057453   -0.933260   -0.683603    0.106354   -0.319554   -0.150210
O    -0.677002   -0.007564    0.143358   -0.001742   -0.000096   -0.003280
H    -1.205577   -0.031926   -0.633225    0.005092    0.000874    0.037914
6
* Frequency(16) 3289.2000
H     1.171217    0.033470    0.728748   -0.862116   -0.049182   -1.717038
C     0.729212    0.008980   -0.116467    0.057230    0.004472    0.171604
H     1.017757    0.902133   -0.704703    0.096402    0.316098   -0.163378
H     1.045863   -0.898437   -0.667234    0.106354   -0.319554   -0.150210
O    -0.676812   -0.007554    0.143715   -0.001742   -0.000096   -0.003280
H    -1.206132   -0.032022   -0.637357    0.005092    0.000874    0.037914
6
* Frequency(16) 3289.2000
H     1.270547    0.039136    0.926578   -0.862116   -0.049182   -1.717038
C     0.722618    0.008464   -0.136239    0.057230    0.004472    0.171604
H     1.006649    0.865713   -0.685879    0.096402    0.316098   -0.163378
H     1.033609   -0.861619   -0.649928    0.106354   -0.319554   -0.150210
O    -0.676612   -0.007542    0.144093   -0.001742   -0.000096   -0.003280
H    -1.206718   -0.032122   -0.641725    0.005092    0.000874    0.037914
6
* Frequency(16) 3289.2000
H     1.364495    0.044496    1.113690   -0.862116   -0.049182   -1.717038
C     0.716382    0.007977   -0.154939    0.057230    0.004472    0.171604
H     0.996144    0.831267   -0.668075    0.096402    0.316098   -0.163378
H     1.022019   -0.826796   -0.633559    0.106354   -0.319554   -0.150210
O    -0.676422   -0.007532    0.144450   -0.001742   -0.000096   -0.003280
H    -1.207273   -0.032218   -0.645857    0.005092    0.000874    0.037914
6
* Frequency(16) 3289.2000
H     1.442880    0.048968    1.269806   -0.862116   -0.049182   -1.717038
C     0.711178    0.007570   -0.170542    0.057230    0.004472    0.171604
H     0.987379    0.802527   -0.653221    0.096402    0.316098   -0.163378
H     1.012349   -0.797742   -0.619901    0.106354   -0.319554   -0.150210
O    -0.676263   -0.007523    0.144749   -0.001742   -0.000096   -0.003280
H    -1.207736   -0.032297   -0.649304    0.005092    0.000874    0.037914
6
* Frequency(16) 3289.2000
H     1.497208    0.052067    1.378009   -0.862116   -0.049182   -1.717038
C     0.707572    0.007289   -0.181356    0.057230    0.004472    0.171604
H     0.981304    0.782607   -0.642925    0.096402    0.316098   -0.163378
H     1.005647   -0.777604   -0.610436    0.106354   -0.319554   -0.150210
O    -0.676154   -0.007517    0.144955   -0.001742   -0.000096   -0.003280
H    -1.208057   -0.032352   -0.651693    0.005092    0.000874    0.037914
6
* Frequency(16) 3289.2000
H     1.521592    0.053458    1.426574   -0.862116   -0.049182   -1.717038
C     0.705953    0.007162   -0.186209    0.057230    0.004472    0.171604
H     0.978578    0.773667   -0.638304    0.096402    0.316098   -0.163378
H     1.002639   -0.768566   -0.606187    0.106354   -0.319554   -0.150210
O    -0.676104   -0.007515    0.145048   -0.001742   -0.000096   -0.003280
H    -1.208201   -0.032377   -0.652766    0.005092    0.000874    0.037914
6
* Frequency(16) 3289.2000
H     1.513389    0.052990    1.410237   -0.862116   -0.049182   -1.717038
C     0.706497    0.007205   -0.184577    0.057230    0.004472    0.171604
H     0.979495    0.776674   -0.639858    0.096402    0.316098   -0.163378
H     1.003651   -0.771606   -0.607616    0.106354   -0.319554   -0.150210
O    -0.676121   -0.007515    0.145017   -0.001742   -0.000096   -0.003280
H    -1.208153   -0.032369   -0.652405    0.005092    0.000874    0.037914
6
* Frequency(16) 3289.2000
H     1.473489    0.050714    1.330769   -0.862116   -0.049182   -1.717038
C     0.709146    0.007412   -0.176634    0.057230    0.004472    0.171604
H     0.983956    0.791304   -0.647420    0.096402    0.316098   -0.163378
H     1.008573   -0.786396   -0.614568    0.106354   -0.319554   -0.150210
O    -0.676202   -0.007520    0.144865   -0.001742   -0.000096   -0.003280
H    -1.207917   -0.032328   -0.650650    0.005092    0.000874    0.037914
6
* Frequency(16) 3289.2000
H     1.406215    0.046876    1.196782   -0.862116   -0.049182   -1.717038
C     0.713612    0.007761   -0.163243    0.057230    0.004472    0.171604
H     0.991479    0.815970   -0.660169    0.096402    0.316098   -0.163378
H     1.016873   -0.811332   -0.626290    0.106354   -0.319554   -0.150210
O    -0.676338   -0.007527    0.144609   -0.001742   -0.000096   -0.003280
H    -1.207520   -0.032260   -0.647692    0.005092    0.000874    0.037914
6
* Frequency(16) 3289.2000
H     1.318857    0.041892    1.022795   -0.862116   -0.049182   -1.717038
C     0.719411    0.008214   -0.145855    0.057230    0.004472    0.171604
H     1.001247    0.848000   -0.676724    0.096402    0.316098   -0.163378
H     1.027649   -0.843712   -0.641510    0.106354   -0.319554   -0.150210
O    -0.676514   -0.007537    0.144277   -0.001742   -0.000096   -0.003280
H    -1.207004   -0.032171   -0.643850    0.005092    0.000874    0.037914
6
* Frequency(16) 3289.2000
H     1.220882    0.036303    0.827663   -0.862116   -0.049182   -1.717038
C     0.725915    0.008722   -0.126353    0.057230    0.004472    0.171604
H     1.012203    0.883923   -0.695291    0.096402    0.316098   -0.163378
H     1.039736   -0.880028   -0.658581    0.106354   -0.319554   -0.150210
O    -0.676712   -0.007548    0.143904   -0.001742   -0.000096   -0.003280
H    -1.206425   -0.032072   -0.639541    0.005092    0.000874    0.037914
