6
* (null), Energy   -1000.0000000
H     1.220882    0.036303    0.827663   -0.008054    0.512284   -0.010640
C     0.725915    0.008722   -0.126353    0.004134   -0.264270    0.005484
H     1.012203    0.883923   -0.695291   -1.266098    0.352472    0.313930
H     1.039736   -0.880028   -0.658581    1.254794    0.378426   -0.329104
O    -0.676712   -0.007548    0.143904   -0.001840    0.117320   -0.002434
H    -1.206425   -0.032072   -0.639541   -0.000694    0.043678   -0.000902
6
* Frequency(9) 1263.0100
H     1.219967    0.094521    0.826454   -0.008054    0.512284   -0.010640
C     0.726385   -0.021311   -0.125730    0.004134   -0.264270    0.005484
H     0.868318    0.923980   -0.659614   -1.266098    0.352472    0.313930
H     1.182337   -0.837022   -0.695982    1.254794    0.378426   -0.329104
O    -0.676921    0.005785    0.143627   -0.001840    0.117320   -0.002434
H    -1.206504   -0.027108   -0.639644   -0.000694    0.043678   -0.000902
6
* Frequency(9) 1263.0100
H     1.219151    0.146431    0.825376   -0.008054    0.512284   -0.010640
C     0.726804   -0.048089   -0.125174    0.004134   -0.264270    0.005484
H     0.740024    0.959695   -0.627804   -1.266098    0.352472    0.313930
H     1.309485   -0.798676   -0.729330    1.254794    0.378426   -0.329104
O    -0.677108    0.017673    0.143381   -0.001840    0.117320   -0.002434
H    -1.206574   -0.022682   -0.639735   -0.000694    0.043678   -0.000902
6
* Frequency(9) 1263.0100
H     1.218522    0.186406    0.824545   -0.008054    0.512284   -0.010640
C     0.727126   -0.068711   -0.124746    0.004134   -0.264270    0.005484
H     0.641226    0.987200   -0.603307   -1.266098    0.352472    0.313930
H     1.407401   -0.769146   -0.755011    1.254794    0.378426   -0.329104
O    -0.677251    0.026828    0.143191   -0.001840    0.117320   -0.002434
H    -1.206628   -0.019274   -0.639805   -0.000694    0.043678   -0.000902
6
* Frequency(9) 1263.0100
H     1.218149    0.210116    0.824053   -0.008054    0.512284   -0.010640
C     0.727318   -0.080942   -0.124492    0.004134   -0.264270    0.005484
H     0.582628    1.003513   -0.588778   -1.266098    0.352472    0.313930
H     1.465475   -0.751632   -0.770243    1.254794    0.378426   -0.329104
O    -0.677336    0.032258    0.143078   -0.001840    0.117320   -0.002434
H    -1.206660   -0.017252   -0.639847   -0.000694    0.043678   -0.000902
6
* Frequency(9) 1263.0100
H     1.218073    0.214990    0.823952   -0.008054    0.512284   -0.010640
C     0.727357   -0.083457   -0.124440    0.004134   -0.264270    0.005484
H     0.570582    1.006867   -0.585791   -1.266098    0.352472    0.313930
H     1.477414   -0.748031   -0.773374    1.254794    0.378426   -0.329104
O    -0.677354    0.033374    0.143055   -0.001840    0.117320   -0.002434
H    -1.206667   -0.016837   -0.639856   -0.000694    0.043678   -0.000902
6
* Frequency(9) 1263.0100
H     1.218301    0.200501    0.824253   -0.008054    0.512284   -0.010640
C     0.727240   -0.075982   -0.124595    0.004134   -0.264270    0.005484
H     0.606392    0.996898   -0.594670   -1.266098    0.352472    0.313930
H     1.441923   -0.758735   -0.764066    1.254794    0.378426   -0.329104
O    -0.677302    0.030055    0.143124   -0.001840    0.117320   -0.002434
H    -1.206647   -0.018072   -0.639830   -0.000694    0.043678   -0.000902
6
* Frequency(9) 1263.0100
H     1.218808    0.168218    0.824923   -0.008054    0.512284   -0.010640
C     0.726980   -0.059328   -0.124941    0.004134   -0.264270    0.005484
H     0.686178    0.974686   -0.614453   -1.266098    0.352472    0.313930
H     1.362850   -0.782582   -0.743326    1.254794    0.378426   -0.329104
O    -0.677186    0.022662    0.143277   -0.001840    0.117320   -0.002434
H    -1.206604   -0.020825   -0.639773   -0.000694    0.043678   -0.000902
6
* Frequency(9) 1263.0100
H     1.219540    0.121640    0.825891   -0.008054    0.512284   -0.010640
C     0.726604   -0.035301   -0.125439    0.004134   -0.264270    0.005484
H     0.801294    0.942638   -0.642996   -1.266098    0.352472    0.313930
H     1.248762   -0.816989   -0.713404    1.254794    0.378426   -0.329104
O    -0.677019    0.011995    0.143499   -0.001840    0.117320   -0.002434
H    -1.206541   -0.024796   -0.639691   -0.000694    0.043678   -0.000902
6
* Frequency(9) 1263.0100
H     1.220418    0.065815    0.827050   -0.008054    0.512284   -0.010640
C     0.726153   -0.006502   -0.126037    0.004134   -0.264270    0.005484
H     0.939265    0.904228   -0.677206   -1.266098    0.352472    0.313930
H     1.112022   -0.858228   -0.677540    1.254794    0.378426   -0.329104
O    -0.676818   -0.000789    0.143764   -0.001840    0.117320   -0.002434
H    -1.206465   -0.029556   -0.639593   -0.000694    0.043678   -0.000902
6
* Frequency(9) 1263.0100
H     1.221346    0.006791    0.828276   -0.008054    0.512284   -0.010640
C     0.725677    0.023946   -0.126669    0.004134   -0.264270    0.005484
H     1.085141    0.863618   -0.713376   -1.266098    0.352472    0.313930
H     0.967450   -0.901828   -0.639622    1.254794    0.378426   -0.329104
O    -0.676606   -0.014307    0.144044   -0.001840    0.117320   -0.002434
H    -1.206385   -0.034588   -0.639489   -0.000694    0.043678   -0.000902
6
* Frequency(9) 1263.0100
H     1.222224   -0.049034    0.829435   -0.008054    0.512284   -0.010640
C     0.725226    0.052745   -0.127267    0.004134   -0.264270    0.005484
H     1.223112    0.825208   -0.747586   -1.266098    0.352472    0.313930
H     0.830710   -0.943067   -0.603758    1.254794    0.378426   -0.329104
O    -0.676405   -0.027091    0.144309   -0.001840    0.117320   -0.002434
H    -1.206309   -0.039348   -0.639391   -0.000694    0.043678   -0.000902
6
* Frequency(9) 1263.0100
H     1.222956   -0.095612    0.830403   -0.008054    0.512284   -0.010640
C     0.724850    0.076772   -0.127765    0.004134   -0.264270    0.005484
H     1.338228    0.793160   -0.776129   -1.266098    0.352472    0.313930
H     0.716622   -0.977474   -0.573836    1.254794    0.378426   -0.329104
O    -0.676238   -0.037758    0.144531   -0.001840    0.117320   -0.002434
H    -1.206246   -0.043319   -0.639309   -0.000694    0.043678   -0.000902
6
* Frequency(9) 1263.0100
H     1.223463   -0.127895    0.831073   -0.008054    0.512284   -0.010640
C     0.724590    0.093426   -0.128111    0.004134   -0.264270    0.005484
H     1.418014    0.770948   -0.795912   -1.266098    0.352472    0.313930
H     0.637549   -1.001321   -0.553096    1.254794    0.378426   -0.329104
O    -0.676122   -0.045151    0.144684   -0.001840    0.117320   -0.002434
H    -1.206203   -0.046072   -0.639252   -0.000694    0.043678   -0.000902
6
* Frequency(9) 1263.0100
H     1.223691   -0.142384    0.831374   -0.008054    0.512284   -0.010640
C     0.724473    0.100901   -0.128266    0.004134   -0.264270    0.005484
H     1.453824    0.760979   -0.804791   -1.266098    0.352472    0.313930
H     0.602058   -1.012025   -0.543788    1.254794    0.378426   -0.329104
O    -0.676070   -0.048470    0.144753   -0.001840    0.117320   -0.002434
H    -1.206183   -0.047307   -0.639226   -0.000694    0.043678   -0.000902
6
* Frequency(9) 1263.0100
H     1.223615   -0.137510    0.831273   -0.008054    0.512284   -0.010640
C     0.724512    0.098386   -0.128214    0.004134   -0.264270    0.005484
H     1.441778    0.764333   -0.801804   -1.266098    0.352472    0.313930
H     0.613997   -1.008424   -0.546919    1.254794    0.378426   -0.329104
O    -0.676088   -0.047354    0.144730   -0.001840    0.117320   -0.002434
H    -1.206190   -0.046892   -0.639235   -0.000694    0.043678   -0.000902
6
* Frequency(9) 1263.0100
H     1.223242   -0.113800    0.830781   -0.008054    0.512284   -0.010640
C     0.724704    0.086155   -0.127960    0.004134   -0.264270    0.005484
H     1.383180    0.780646   -0.787275   -1.266098    0.352472    0.313930
H     0.672071   -0.990910   -0.562151    1.254794    0.378426   -0.329104
O    -0.676173   -0.041924    0.144617   -0.001840    0.117320   -0.002434
H    -1.206222   -0.044870   -0.639277   -0.000694    0.043678   -0.000902
6
* Frequency(9) 1263.0100
H     1.222613   -0.073825    0.829950   -0.008054    0.512284   -0.010640
C     0.725026    0.065533   -0.127532    0.004134   -0.264270    0.005484
H     1.284382    0.808151   -0.762778   -1.266098    0.352472    0.313930
H     0.769987   -0.961380   -0.587832    1.254794    0.378426   -0.329104
O    -0.676316   -0.032769    0.144427   -0.001840    0.117320   -0.002434
H    -1.206276   -0.041462   -0.639347   -0.000694    0.043678   -0.000902
6
* Frequency(9) 1263.0100
H     1.221797   -0.021915    0.828872   -0.008054    0.512284   -0.010640
C     0.725445    0.038755   -0.126976    0.004134   -0.264270    0.005484
H     1.156088    0.843866   -0.730968   -1.266098    0.352472    0.313930
H     0.897135   -0.923034   -0.621180    1.254794    0.378426   -0.329104
O    -0.676503   -0.020881    0.144181   -0.001840    0.117320   -0.002434
H    -1.206346   -0.037036   -0.639438   -0.000694    0.043678   -0.000902
6
* Frequency(9) 1263.0100
H     1.220882    0.036303    0.827663   -0.008054    0.512284   -0.010640
C     0.725915    0.008722   -0.126353    0.004134   -0.264270    0.005484
H     1.012203    0.883923   -0.695291   -1.266098    0.352472    0.313930
H     1.039736   -0.880028   -0.658581    1.254794    0.378426   -0.329104
O    -0.676712   -0.007548    0.143904   -0.001840    0.117320   -0.002434
H    -1.206425   -0.032072   -0.639541   -0.000694    0.043678   -0.000902
