6
* (null), Energy   -1000.0000000
H     1.220882    0.036303    0.827663   -0.927860   -0.006146    0.402152
C     0.725915    0.008722   -0.126353    0.136200   -0.001184   -0.159572
H     1.012203    0.883923   -0.695291    0.696978    0.089478    0.277260
H     1.039736   -0.880028   -0.658581    0.699138   -0.056124    0.280326
O    -0.676712   -0.007548    0.143904   -0.061556   -0.000696    0.012740
H    -1.206425   -0.032072   -0.639541   -1.114156   -0.002030    0.739468
6
* Frequency(8) 1148.3800
H     1.115436    0.035605    0.873365   -0.927860   -0.006146    0.402152
C     0.741393    0.008587   -0.144488    0.136200   -0.001184   -0.159572
H     1.091411    0.894092   -0.663782    0.696978    0.089478    0.277260
H     1.119189   -0.886406   -0.626723    0.699138   -0.056124    0.280326
O    -0.683708   -0.007627    0.145352   -0.061556   -0.000696    0.012740
H    -1.333043   -0.032303   -0.555504   -1.114156   -0.002030    0.739468
6
* Frequency(8) 1148.3800
H     1.021416    0.034982    0.914115   -0.927860   -0.006146    0.402152
C     0.755195    0.008467   -0.160657    0.136200   -0.001184   -0.159572
H     1.162035    0.903158   -0.635687    0.696978    0.089478    0.277260
H     1.190033   -0.892093   -0.598318    0.699138   -0.056124    0.280326
O    -0.689945   -0.007698    0.146643   -0.061556   -0.000696    0.012740
H    -1.445940   -0.032508   -0.480574   -1.114156   -0.002030    0.739468
6
* Frequency(8) 1148.3800
H     0.949011    0.034502    0.945497   -0.927860   -0.006146    0.402152
C     0.765823    0.008375   -0.173109    0.136200   -0.001184   -0.159572
H     1.216423    0.910141   -0.614052    0.696978    0.089478    0.277260
H     1.244589   -0.896473   -0.576443    0.699138   -0.056124    0.280326
O    -0.694748   -0.007752    0.147637   -0.061556   -0.000696    0.012740
H    -1.532882   -0.032667   -0.422871   -1.114156   -0.002030    0.739468
6
* Frequency(8) 1148.3800
H     0.906068    0.034218    0.964109   -0.927860   -0.006146    0.402152
C     0.772126    0.008320   -0.180494    0.136200   -0.001184   -0.159572
H     1.248681    0.914282   -0.601219    0.696978    0.089478    0.277260
H     1.276947   -0.899070   -0.563469    0.699138   -0.056124    0.280326
O    -0.697597   -0.007784    0.148227   -0.061556   -0.000696    0.012740
H    -1.584447   -0.032761   -0.388647   -1.114156   -0.002030    0.739468
6
* Frequency(8) 1148.3800
H     0.897240    0.034159    0.967935   -0.927860   -0.006146    0.402152
C     0.773422    0.008309   -0.182012    0.136200   -0.001184   -0.159572
H     1.255312    0.915133   -0.598581    0.696978    0.089478    0.277260
H     1.283599   -0.899604   -0.560802    0.699138   -0.056124    0.280326
O    -0.698183   -0.007791    0.148348   -0.061556   -0.000696    0.012740
H    -1.595048   -0.032780   -0.381611   -1.114156   -0.002030    0.739468
6
* Frequency(8) 1148.3800
H     0.923484    0.034333    0.956561   -0.927860   -0.006146    0.402152
C     0.769570    0.008343   -0.177499    0.136200   -0.001184   -0.159572
H     1.235599    0.912603   -0.606423    0.696978    0.089478    0.277260
H     1.263824   -0.898017   -0.568731    0.699138   -0.056124    0.280326
O    -0.696442   -0.007771    0.147987   -0.061556   -0.000696    0.012740
H    -1.563535   -0.032723   -0.402526   -1.114156   -0.002030    0.739468
6
* Frequency(8) 1148.3800
H     0.981955    0.034720    0.931218   -0.927860   -0.006146    0.402152
C     0.760987    0.008417   -0.167443    0.136200   -0.001184   -0.159572
H     1.191677    0.906964   -0.623896    0.696978    0.089478    0.277260
H     1.219766   -0.894480   -0.586396    0.699138   -0.056124    0.280326
O    -0.692563   -0.007727    0.147185   -0.061556   -0.000696    0.012740
H    -1.493324   -0.032595   -0.449125   -1.114156   -0.002030    0.739468
6
* Frequency(8) 1148.3800
H     1.066318    0.035279    0.894654   -0.927860   -0.006146    0.402152
C     0.748603    0.008525   -0.152935    0.136200   -0.001184   -0.159572
H     1.128307    0.898828   -0.649105    0.696978    0.089478    0.277260
H     1.156200   -0.889377   -0.611884    0.699138   -0.056124    0.280326
O    -0.686966   -0.007664    0.146026   -0.061556   -0.000696    0.012740
H    -1.392023   -0.032410   -0.516359   -1.114156   -0.002030    0.739468
6
* Frequency(8) 1148.3800
H     1.167430    0.035949    0.850830   -0.927860   -0.006146    0.402152
C     0.733761    0.008654   -0.135546    0.136200   -0.001184   -0.159572
H     1.052355    0.889078   -0.679319    0.696978    0.089478    0.277260
H     1.080012   -0.883261   -0.642432    0.699138   -0.056124    0.280326
O    -0.680258   -0.007588    0.144638   -0.061556   -0.000696    0.012740
H    -1.270609   -0.032189   -0.596942   -1.114156   -0.002030    0.739468
6
* Frequency(8) 1148.3800
H     1.274334    0.036657    0.804496   -0.927860   -0.006146    0.402152
C     0.718069    0.008790   -0.117160    0.136200   -0.001184   -0.159572
H     0.972051    0.878768   -0.711263    0.696978    0.089478    0.277260
H     0.999460   -0.876795   -0.674730    0.699138   -0.056124    0.280326
O    -0.673166   -0.007508    0.143170   -0.061556   -0.000696    0.012740
H    -1.142241   -0.031955   -0.682140   -1.114156   -0.002030    0.739468
6
* Frequency(8) 1148.3800
H     1.375446    0.037327    0.760672   -0.927860   -0.006146    0.402152
C     0.703227    0.008919   -0.099771    0.136200   -0.001184   -0.159572
H     0.896099    0.869018   -0.741477    0.696978    0.089478    0.277260
H     0.923272   -0.870679   -0.705278    0.699138   -0.056124    0.280326
O    -0.666458   -0.007432    0.141782   -0.061556   -0.000696    0.012740
H    -1.020827   -0.031734   -0.762723   -1.114156   -0.002030    0.739468
6
* Frequency(8) 1148.3800
H     1.459809    0.037886    0.724108   -0.927860   -0.006146    0.402152
C     0.690843    0.009027   -0.085263    0.136200   -0.001184   -0.159572
H     0.832729    0.860882   -0.766686    0.696978    0.089478    0.277260
H     0.859706   -0.865576   -0.730766    0.699138   -0.056124    0.280326
O    -0.660861   -0.007369    0.140623   -0.061556   -0.000696    0.012740
H    -0.919526   -0.031549   -0.829957   -1.114156   -0.002030    0.739468
6
* Frequency(8) 1148.3800
H     1.518280    0.038273    0.698765   -0.927860   -0.006146    0.402152
C     0.682260    0.009101   -0.075207    0.136200   -0.001184   -0.159572
H     0.788807    0.855243   -0.784159    0.696978    0.089478    0.277260
H     0.815648   -0.862039   -0.748431    0.699138   -0.056124    0.280326
O    -0.656982   -0.007325    0.139821   -0.061556   -0.000696    0.012740
H    -0.849315   -0.031421   -0.876556   -1.114156   -0.002030    0.739468
6
* Frequency(8) 1148.3800
H     1.544524    0.038447    0.687391   -0.927860   -0.006146    0.402152
C     0.678408    0.009135   -0.070694    0.136200   -0.001184   -0.159572
H     0.769094    0.852713   -0.792001    0.696978    0.089478    0.277260
H     0.795873   -0.860452   -0.756360    0.699138   -0.056124    0.280326
O    -0.655241   -0.007305    0.139460   -0.061556   -0.000696    0.012740
H    -0.817802   -0.031364   -0.897471   -1.114156   -0.002030    0.739468
6
* Frequency(8) 1148.3800
H     1.535696    0.038388    0.691217   -0.927860   -0.006146    0.402152
C     0.679704    0.009124   -0.072212    0.136200   -0.001184   -0.159572
H     0.775725    0.853564   -0.789363    0.696978    0.089478    0.277260
H     0.802525   -0.860986   -0.753693    0.699138   -0.056124    0.280326
O    -0.655827   -0.007312    0.139581   -0.061556   -0.000696    0.012740
H    -0.828403   -0.031383   -0.890435   -1.114156   -0.002030    0.739468
6
* Frequency(8) 1148.3800
H     1.492753    0.038104    0.709829   -0.927860   -0.006146    0.402152
C     0.686007    0.009069   -0.079597    0.136200   -0.001184   -0.159572
H     0.807983    0.857705   -0.776530    0.696978    0.089478    0.277260
H     0.834883   -0.863583   -0.740719    0.699138   -0.056124    0.280326
O    -0.658676   -0.007344    0.140171   -0.061556   -0.000696    0.012740
H    -0.879968   -0.031477   -0.856211   -1.114156   -0.002030    0.739468
6
* Frequency(8) 1148.3800
H     1.420348    0.037624    0.741211   -0.927860   -0.006146    0.402152
C     0.696635    0.008977   -0.092049    0.136200   -0.001184   -0.159572
H     0.862371    0.864688   -0.754895    0.696978    0.089478    0.277260
H     0.889439   -0.867963   -0.718844    0.699138   -0.056124    0.280326
O    -0.663479   -0.007398    0.141165   -0.061556   -0.000696    0.012740
H    -0.966910   -0.031636   -0.798508   -1.114156   -0.002030    0.739468
6
* Frequency(8) 1148.3800
H     1.326328    0.037001    0.781961   -0.927860   -0.006146    0.402152
C     0.710437    0.008857   -0.108218    0.136200   -0.001184   -0.159572
H     0.932995    0.873754   -0.726800    0.696978    0.089478    0.277260
H     0.960283   -0.873650   -0.690439    0.699138   -0.056124    0.280326
O    -0.669716   -0.007469    0.142456   -0.061556   -0.000696    0.012740
H    -1.079807   -0.031841   -0.723578   -1.114156   -0.002030    0.739468
6
* Frequency(8) 1148.3800
H     1.220882    0.036303    0.827663   -0.927860   -0.006146    0.402152
C     0.725915    0.008722   -0.126353    0.136200   -0.001184   -0.159572
H     1.012203    0.883923   -0.695291    0.696978    0.089478    0.277260
H     1.039736   -0.880028   -0.658581    0.699138   -0.056124    0.280326
O    -0.676712   -0.007548    0.143904   -0.061556   -0.000696    0.012740
H    -1.206425   -0.032072   -0.639541   -1.114156   -0.002030    0.739468
