
 Working directory              : /tmp/lme/molpro.x5lbEktarF/
 Global scratch directory       : /tmp/lme/molpro.x5lbEktarF/
 Wavefunction directory         : /home/lme/wfu/
 Main file repository           : /tmp/lme/molpro.x5lbEktarF/

 id        : liedlgroup

 Nodes     nprocs
 sv1-c724     6
 GA implementation: MPI file
 GA implementation (serial work in mppx): MPI file

 Using customized tuning parameters: mindgm=1; mindgv=20; mindgc=4; mindgr=1; noblas=0; minvec=7
 default implementation of scratch files=sf  


 Variables initialized (1042), CPU time= 0.01 sec
 ***,water dimer
 
  memory, 600, m
                                                                                 !gthresh,optgrad=1.d-7,twoint=1.d-14,prefac=1.d-16
  orient,mass
  geometry={
 O, 0.000000, 0.000000,  0.000000
 H, 0.758602, 0.000000,  0.504284
 H, 0.260455, 0.000000, -0.872893
 O, 3.000000, 0.500000,  0.000000
 H, 3.758602, 0.500000,  0.504284
 H, 3.260455, 0.500000, -0.872893
  }
  mass,iso
  basis=6-311g(d,p)
 
  {hf
  start,atden}
 
 
  optg
  {frequencies, symm=auto, print=0,analytical}
  put,molden, h2o_dimer.molden
 Commands initialized (847), CPU time= 0.01 sec, 718 directives.
 Default parameters read. Elapsed time= 0.14 sec

 Checking input...
 Passed
1


                                         ***  PROGRAM SYSTEM MOLPRO  ***
                                       Copyright, TTI GmbH Stuttgart, 2015
                                    Version 2024.1 linked Wed Jan 31 11:42:09 2024


 **********************************************************************************************************************************
 LABEL *   water dimer                                                                                                                                                   
  (6 PROC) 64 bit mpp version                                                            DATE: 16-Sep-24          TIME: 11:15:46  
 **********************************************************************************************************************************

 SHA1:             675817fde4514a4a933b69e420913a90cee4ef91
 **********************************************************************************************************************************

 Memory per process:       600 MW
 Total memory per node:   3600 MW

 GA preallocation disabled
 GA check disabled

 Variable memory set to 600.0 MW

 ZCENTRE=MASS


 Geometry recognized as XYZ



 Using masses of most abundant isotopes

 **********************************************************************************************************************************
 SETTING BASIS          =    6-311G(D,P)


 Recomputing integrals since basis changed


 Using spherical harmonics

 Library entry O      S 6-311G               selected for orbital group  1
 Library entry O      P 6-311G               selected for orbital group  1
 Library entry O      D 6-311G*              selected for orbital group  1
 Library entry H      S 6-311G               selected for orbital group  2
 Library entry H      P 6-311G**             selected for orbital group  2


 PROGRAM * SEWARD (Integral evaluation for generally contracted gaussian basis sets)     Author: Roland Lindh, 1990

 Geometry written to block  1 of record 700

 Orientation using atomic masses  
 Molecule type: Asymmetric top
 Rotational constants:       5.8437692      5.9823572    244.9699746 GHz

 Point group  C1  



 ATOMIC COORDINATES

 NR  ATOM    CHARGE       X              Y              Z

   1  O       8.00    0.012435438    0.051314869   -2.979821864
   2  H       1.00   -0.192697654    1.004543482   -1.561205825
   3  H       1.00   -0.114848413   -1.597285472   -2.501167160
   4  O       8.00    0.024766971    0.026507588    2.767489001
   5  H       1.00   -0.180366122    0.979736201    4.186105040
   6  H       1.00   -0.102516881   -1.622092753    3.246143705

 Bond lengths in Bohr (Angstrom)

 1-2  1.721393575  1-3  1.721393211  4-5  1.721393575  4-6  1.721393211
     ( 0.910922251)     ( 0.910922058)     ( 0.910922251)     ( 0.910922058)

 Bond angles

  2-1-3  107.00002446   5-4-6  107.00002446

 NUCLEAR CHARGE:                   20
 NUMBER OF PRIMITIVE AOS:          96
 NUMBER OF SYMMETRY AOS:           94
 NUMBER OF CONTRACTIONS:           60   (   60A   )
 NUMBER OF INNER CORE ORBITALS:     0   (    0A   )
 NUMBER OF OUTER CORE ORBITALS:     2   (    2A   )
 NUMBER OF VALENCE ORBITALS:       12   (   12A   )


 NUCLEAR REPULSION ENERGY   36.71638738


 Eigenvalues of metric

         1 0.147E-01 0.154E-01 0.316E-01 0.343E-01 0.742E-01 0.853E-01 0.888E-01 0.935E-01


 Contracted 2-electron integrals neglected if value below      1.0D-11
 AO integral compression algorithm  1   Integral accuracy      1.0D-11

     6.554 MB (compressed) written to integral file ( 39.1%)

     Node minimum: 0.786 MB, node maximum: 1.311 MB


 NUMBER OF SORTED TWO-ELECTRON INTEGRALS:     279990.     BUFFER LENGTH:  32768
 NUMBER OF SEGMENTS:   1  SEGMENT LENGTH:     279990      RECORD LENGTH: 524288

 Memory used in sort:       0.84 MW

 SORT1 READ     2065183. AND WROTE      198640. INTEGRALS IN      1 RECORDS. CPU TIME:     0.03 SEC, REAL TIME:     0.04 SEC
 SORT2 READ     1166366. AND WROTE     1675365. INTEGRALS IN     30 RECORDS. CPU TIME:     0.02 SEC, REAL TIME:     0.02 SEC

 Node minimum:      278465.  Node maximum:      279990. integrals

 OPERATOR DM      FOR CENTER  0  COORDINATES:    0.000000    0.000000    0.000000


 **********************************************************************************************************************************
 DATASETS  * FILE   NREC   LENGTH (MB)   RECORD NAMES
              1      18       28.81       500      610      700      900      950      970     1000      129      960     1100   
                                          VAR    BASINP    GEOM    SYMINP    ZMAT    AOBASIS   BASIS     P2S    ABASIS      S 
                                         1400     1410     1200     1210     1080     1600     1650     1700   
                                           T        V       H0       H01     AOSYM     SMH    MOLCAS    OPER   

 PROGRAMS   *        TOTAL       INT
 CPU TIMES  *         0.66      0.42
 REAL TIME  *         1.30 SEC
 DISK USED  *        29.22 MB (local),      203.71 MB (total)
 GA USED    *         0.00 MB       (max)       0.00 MB       (current)
 **********************************************************************************************************************************


 Program * Restricted Hartree-Fock

 Orbital guess generated from atomic densities.

 Initial occupancy:  10

 NELEC=   20   SYM=1   MS2= 0   THRE=1.0D-08   THRD=1.0D-06   THRG=1.0D-06  HFMA2=F  DIIS_START=2   DIIS_MAX=10   DIIS_INCORE=F

 Level shifts:    0.00 (CLOSED)    0.00 (OPEN)    0.30 (GAP_MIN)

 ITER           ETOT              DE          GRAD        DDIFF     DIIS  NEXP   TIME(IT)  TIME(TOT)  DIAG
   1     -152.02452425    -152.02452425     0.00D+00     0.62D-01     0     0       0.00      0.02    start
   2     -152.07948999      -0.05496575     0.14D-01     0.97D-02     1     0       0.01      0.03    diag
   3     -152.09484053      -0.01535053     0.72D-02     0.31D-02     2     0       0.00      0.03    diag
   4     -152.09518536      -0.00034484     0.76D-03     0.67D-03     3     0       0.00      0.03    diag
   5     -152.09520964      -0.00002428     0.18D-03     0.24D-03     4     0       0.01      0.04    diag
   6     -152.09521049      -0.00000084     0.29D-04     0.45D-04     5     0       0.00      0.04    diag
   7     -152.09521051      -0.00000003     0.68D-05     0.57D-05     6     0       0.00      0.04    diag
   8     -152.09521052      -0.00000000     0.27D-05     0.23D-05     7     0       0.01      0.05    fixocc
   9     -152.09521052      -0.00000000     0.36D-06     0.45D-06     8     0       0.00      0.05    diag
  10     -152.09521052      -0.00000000     0.53D-07     0.59D-07     0     0       0.00      0.05    diag/orth

 Final occupancy:  10

 !RHF STATE 1.1 Energy               -152.095210519142
  RHF One-electron energy            -282.777287508934
  RHF Two-electron energy              93.965689611411
  RHF Kinetic energy                  152.493960255362
  RHF Nuclear energy                   36.716387378381
  RHF Virial quotient                  -0.997385144070

 !RHF STATE 1.1 Dipole moment          -0.26093946    -0.53502852     1.62787843
 Dipole moment /Debye                  -0.66324194    -1.35990684     4.13765426

 Orbital energies:

           1.1          2.1          3.1          4.1          5.1          6.1          7.1          8.1          9.1         10.1
    -20.559673   -20.507767    -1.388547    -1.337674    -0.761402    -0.712154    -0.605558    -0.546585    -0.526639    -0.476953

          11.1         12.1
      0.134739     0.192871


 HOMO     10.1    -0.476953 =     -12.9786eV
 LUMO     11.1     0.134739 =       3.6664eV
 LUMO-HOMO         0.611692 =      16.6450eV

 Orbitals saved in record  2100.2


 **********************************************************************************************************************************
 DATASETS  * FILE   NREC   LENGTH (MB)   RECORD NAMES
              1      18       28.81       500      610      700      900      950      970     1000      129      960     1100   
                                          VAR    BASINP    GEOM    SYMINP    ZMAT    AOBASIS   BASIS     P2S    ABASIS      S 
                                         1400     1410     1200     1210     1080     1600     1650     1700   
                                           T        V       H0       H01     AOSYM     SMH    MOLCAS    OPER   

              2       4        0.52       700     1000      520     2100   
                                         GEOM     BASIS   MCVARS     RHF  

 PROGRAMS   *        TOTAL    HF-SCF       INT
 CPU TIMES  *         0.72      0.05      0.42
 REAL TIME  *         1.36 SEC
 DISK USED  *        29.64 MB (local),      206.27 MB (total)
 GA USED    *         0.00 MB       (max)       0.00 MB       (current)
 **********************************************************************************************************************************


 PROGRAM * OPT (Geometry optimization)     Authors: F. Eckert and H.-J. Werner


 BFGS update of hessian

 *** Long output written to logfile /home/lme/Theoretische_Chemie/Nomodeco/deuterium_calculations/h2o_dimer/h2o_dimer.log ***


 Geometry optimization using default procedure for command HF-SCF

 Geometry written to block  1 of record 700

 PQS Optimization using delocalized internal coordinates

 Point group c1. Number of degrees of freedom:   12

 ITER.   ENERGY(OLD)    ENERGY(NEW)      DE          GRADMAX     GRADNORM    GRADRMS     STEPMAX     STEPLEN     STEPRMS   CPU-time
   1  -152.09521052  -152.09971843    -0.00450792  0.04450887  0.07840469  0.02263348  0.06493512  0.12504928  0.03609862      0.47
   2  -152.09971843  -152.09989871    -0.00018028  0.00255645  0.00593123  0.00171220  0.04944551  0.06641902  0.01917352      0.94
   3  -152.09989871  -152.10015318    -0.00025446  0.00269630  0.00372799  0.00107618  0.14874817  0.19276054  0.05564518      1.39
   4  -152.10015318  -152.10046628    -0.00031311  0.00311269  0.00472875  0.00136507  0.29055602  0.40218725  0.11610146      1.86
   5  -152.10046628  -152.10095696    -0.00049067  0.00514776  0.00821712  0.00237208  0.26883008  0.35817431  0.10339602      2.31
   6  -152.10095696  -152.10176344    -0.00080648  0.00456861  0.00732461  0.00211443  0.34814459  0.50000000  0.14433757      2.77
   7  -152.10176344  -152.10229502    -0.00053158  0.00222309  0.00409451  0.00118198  0.32727445  0.50000000  0.14433757      3.23
   8  -152.10229502  -152.10241525    -0.00012023  0.00109914  0.00184023  0.00053123  0.31226287  0.43062924  0.12431195      3.69
   9  -152.10241525  -152.10259107    -0.00017582  0.00127383  0.00191982  0.00055420  0.23292381  0.46632862  0.13461748      4.18
  10  -152.10259107  -152.10268032    -0.00008925  0.00137554  0.00198114  0.00057191  0.24988966  0.43015718  0.12417568      4.66
  11  -152.10268032  -152.10283345    -0.00015313  0.00129151  0.00199838  0.00057688  0.28125564  0.43391605  0.12526077      5.14
  12  -152.10283345  -152.10287960    -0.00004616  0.00091091  0.00188514  0.00054419  0.15165049  0.24088949  0.06953881      5.60
  13  -152.10287960  -152.10289558    -0.00001598  0.00082916  0.00124404  0.00035912  0.04753108  0.07304294  0.02108568      6.07
  14  -152.10289558  -152.10289872    -0.00000314  0.00039728  0.00064963  0.00018753  0.03966032  0.05064591  0.01462021      6.54
  15  -152.10289872  -152.10289952    -0.00000080  0.00036602  0.00053974  0.00015581  0.06582046  0.08169635  0.02358370      7.01
  16  -152.10289952  -152.10289957    -0.00000004  0.00036201  0.00051903  0.00014983  0.10074815  0.12487076  0.03604708      7.47
  17  -152.10289957  -152.10290207    -0.00000250  0.00030990  0.00049895  0.00014404  0.02132683  0.02508104  0.00724027      7.93
  18  -152.10290207  -152.10290583    -0.00000376  0.00027726  0.00042654  0.00012313  0.05241349  0.06278270  0.01812380      8.40
  19  -152.10290583  -152.10290712    -0.00000129  0.00021647  0.00036127  0.00010429  0.00692687  0.01121806  0.00323837      8.86
  20  -152.10290712  -152.10291031    -0.00000319  0.00018283  0.00028108  0.00008114  0.01102800  0.02113357  0.00610074      9.33
  21  -152.10291031  -152.10291197    -0.00000166  0.00010160  0.00018735  0.00005408  0.03086516  0.03429669  0.00990060      9.81
  22  -152.10291197  -152.10291268    -0.00000070  0.00012371  0.00020133  0.00005812  0.02990368  0.03299178  0.00952391     10.30

 END OF GEOMETRY OPTIMIZATION.

 Geometry written to block  1 of record 700

 Recomputing wavefunction for reoriented structure

 Current geometry (xyz format, in Angstrom)

    6
 HF-SCF000/6-311G(D,P)  ENERGY=-152.10291268
 O          0.0624902382       -0.0016909589       -1.5290599309
 H          0.0202722050       -0.0058819265       -0.5849369768
 H         -0.8325239745        0.0251985837       -1.8163654339
 O         -0.0550110218        0.0014575294        1.4477473397
 H          0.3663477395        0.7448217535        1.8436524855
 H          0.3272034684       -0.7604337166        1.8481394231

 **********************************************************************************************************************************


 **********************************************************************************************************************************
 DATASETS  * FILE   NREC   LENGTH (MB)   RECORD NAMES
              1      18       28.81       500      610      700      900      950      970     1000      129      960     1100   
                                          VAR    BASINP    GEOM    SYMINP    ZMAT    AOBASIS   BASIS     P2S    ABASIS      S 
                                         1400     1410     1200     1210     1080     1600     1650     1700   
                                           T        V       H0       H01     AOSYM     SMH    MOLCAS    OPER   

              2       4        0.52       700     1000      520     2100   
                                         GEOM     BASIS   MCVARS     RHF  

 PROGRAMS   *        TOTAL      OPTG    HF-SCF       INT
 CPU TIMES  *        11.41     10.70      0.05      0.42
 REAL TIME  *        13.28 SEC
 DISK USED  *        29.65 MB (local),      206.65 MB (total)
 SF USED    *         0.07 MB
 GA USED    *         0.00 MB       (max)       0.00 MB       (current)
 **********************************************************************************************************************************


 PROGRAM * HESSIAN

 PROGRAM * MCKINLEY (Hessian of the energy)     Author: A. Bernhardsson, R. Lindh

 Orbitals from record         2100.2

 Number of closed-shell orbitals: 10 ( 10 )
 Number of occupied orbitals:     10 ( 10 )

 Number of electrons= 20     Singlet     Space symmetry=1      Wavefunction type: CLOSED          


 McKinley needed      0.64 seconds of CPU time

 Entering CPHF calculation

 CPHF needed 140 iterations for 18 perturbations.  Total CPU time:    0.60 sec


 HF-SCF hessian saved to record  5300.2

 PROGRAM * FREQUENCIES (Calculation of harmonic vibrational spectra for HF-SCF)


 Permanent Dipole Moment [debye]
     1-   3    0.000000    0.000000    0.000000

 Dipole Moment Norm    0.0000000 [debye]

 Dipole Moment Derivatives [debye/ang]
              1             2             3             4             5             6             7             8
    1    0.00000000    0.00000000    0.00000000    0.00000000    0.00000000    0.00000000    0.00000000    0.00000000
    2    0.00000000    0.00000000    0.00000000    0.00000000    0.00000000    0.00000000    0.00000000    0.00000000
    3    0.00000000    0.00000000    0.00000000    0.00000000    0.00000000    0.00000000    0.00000000    0.00000000
              9            10            11            12            13            14            15            16
    1    0.00000000    0.00000000    0.00000000    0.00000000    0.00000000    0.00000000    0.00000000    0.00000000
    2    0.00000000    0.00000000    0.00000000    0.00000000    0.00000000    0.00000000    0.00000000    0.00000000
    3    0.00000000    0.00000000    0.00000000    0.00000000    0.00000000    0.00000000    0.00000000    0.00000000
             17            18
    1    0.00000000    0.00000000
    2    0.00000000    0.00000000
    3    0.00000000    0.00000000

 Projecting out rotations and translations

 Force Constants (Second Derivatives of the Energy) in [a.u.]
                             OX1         OY1         OZ1         HX2         HY2     
           OX1           0.6254867
           OY1          -0.0182061   0.0050590
           OZ1           0.1229086  -0.0074191   0.7013832
           HX2          -0.0604507   0.0011217   0.0662239   0.0639144
           HY2           0.0015158  -0.0066327   0.0014864  -0.0014454   0.0112338
           HZ2           0.0037429   0.0032797  -0.5932228  -0.0088912  -0.0032413
           HX3          -0.5677269   0.0170662  -0.1890651   0.0001692  -0.0000215
           HY3           0.0166903  -0.0014761   0.0059149   0.0003647   0.0008184
           HZ3          -0.1262740   0.0041461  -0.1015183  -0.0571007   0.0017117
           OX4           0.0037178   0.0000315  -0.0001075  -0.0049723  -0.0000650
           OY4          -0.0000007   0.0046097   0.0000242  -0.0000298  -0.0072076
           OZ4          -0.0022056   0.0000254  -0.0065732   0.0034811  -0.0000440
           HX5          -0.0005182   0.0001008   0.0000476   0.0006845   0.0001028
           HY5           0.0000022  -0.0007786   0.0010375  -0.0000003   0.0008756
           HZ5           0.0009575   0.0016592  -0.0000254  -0.0019441  -0.0033501
           HX6          -0.0005087  -0.0001141  -0.0000074   0.0006549  -0.0000867
           HY6          -0.0000016  -0.0007812  -0.0010439  -0.0000111   0.0009126
           HZ6           0.0008707  -0.0016913  -0.0000435  -0.0017690   0.0034373
                             HZ2         HX3         HY3         HZ3         OX4     
           HZ2           0.6103735
           HX3           0.0061345   0.5677887
           HY3          -0.0000785  -0.0170426   0.0010190
           HZ3          -0.0144393   0.1824144  -0.0058214   0.1165195
           OX4          -0.0016329  -0.0002756  -0.0000222   0.0010972   0.2698772
           OY4           0.0000687  -0.0000122  -0.0007782  -0.0000447   0.0149111
           OZ4          -0.0019428   0.0006545  -0.0000153  -0.0008021   0.2636523
           HX5           0.0002683   0.0000165  -0.0001788  -0.0000727  -0.1442112
           HY5          -0.0020720  -0.0000349   0.0002153  -0.0000826  -0.1773747
           HZ5          -0.0003663  -0.0000746  -0.0001814   0.0001164  -0.1364979
           HX6           0.0003784   0.0000281   0.0001885  -0.0000642  -0.1241359
           HY6           0.0020434   0.0000451   0.0002017   0.0000909   0.1625193
           HZ6          -0.0004023  -0.0000638   0.0001816   0.0001239  -0.1265112
                             OY4         OZ4         HX5         HY5         HZ5     
           OY4           0.8118420
           OZ4          -0.0084734   0.2784170
           HX5          -0.2226911  -0.1365055   0.1347766
           HY5          -0.3953459  -0.1634224   0.2010859   0.4272633
           HZ5          -0.2073004  -0.1334238   0.1276507   0.1869700   0.1243865
           HX6           0.2078226  -0.1290768   0.0092519  -0.0236782   0.0099083
           HY6          -0.4131201   0.1719296   0.0215803  -0.0322298   0.0222027
           HZ6           0.2157255  -0.1356751   0.0086116  -0.0224304   0.0093126
                             HX6         HY6         HZ6     
           HX6           0.1147098
           HY6          -0.1841320   0.4450168
           HZ6           0.1188617  -0.1952227   0.1266844


 Atomic Masses
     1-   6   15.994910    1.007825    1.007825   15.994910    1.007825    1.007825

 Mass weighted Second Derivative Matrix
                             OX1         OY1         OZ1         HX2         HY2     
           OX1           0.0391054
           OY1          -0.0011382   0.0003163
           OZ1           0.0076842  -0.0004638   0.0438504
           HX2          -0.0150563   0.0002794   0.0164942   0.0634182
           HY2           0.0003775  -0.0016520   0.0003702  -0.0014342   0.0111466
           HZ2           0.0009322   0.0008169  -0.1477524  -0.0088222  -0.0032161
           HX3          -0.1414022   0.0042506  -0.0470899   0.0001679  -0.0000213
           HY3           0.0041570  -0.0003677   0.0014732   0.0003619   0.0008120
           HZ3          -0.0314507   0.0010327  -0.0252849  -0.0566573   0.0016984
           OX4           0.0002324   0.0000020  -0.0000067  -0.0012384  -0.0000162
           OY4          -0.0000000   0.0002882   0.0000015  -0.0000074  -0.0017952
           OZ4          -0.0001379   0.0000016  -0.0004110   0.0008670  -0.0000110
           HX5          -0.0001291   0.0000251   0.0000118   0.0006792   0.0001020
           HY5           0.0000006  -0.0001939   0.0002584  -0.0000003   0.0008688
           HZ5           0.0002385   0.0004132  -0.0000063  -0.0019290  -0.0033241
           HX6          -0.0001267  -0.0000284  -0.0000019   0.0006499  -0.0000860
           HY6          -0.0000004  -0.0001946  -0.0002600  -0.0000110   0.0009055
           HZ6           0.0002169  -0.0004213  -0.0000108  -0.0017553   0.0034107
                             HZ2         HX3         HY3         HZ3         OX4     
           HZ2           0.6056344
           HX3           0.0060869   0.5633803
           HY3          -0.0000779  -0.0169102   0.0010111
           HZ3          -0.0143272   0.1809981  -0.0057762   0.1156148
           OX4          -0.0004067  -0.0000686  -0.0000055   0.0002733   0.0168727
           OY4           0.0000171  -0.0000030  -0.0001938  -0.0000111   0.0009322
           OZ4          -0.0004839   0.0001630  -0.0000038  -0.0001998   0.0164835
           HX5           0.0002663   0.0000163  -0.0001774  -0.0000722  -0.0359183
           HY5          -0.0020559  -0.0000347   0.0002136  -0.0000820  -0.0441782
           HZ5          -0.0003634  -0.0000740  -0.0001800   0.0001155  -0.0339971
           HX6           0.0003754   0.0000279   0.0001870  -0.0000637  -0.0309182
           HY6           0.0020275   0.0000447   0.0002001   0.0000902   0.0404782
           HZ6          -0.0003991  -0.0000633   0.0001802   0.0001229  -0.0315098
                             OY4         OZ4         HX5         HY5         HZ5     
           OY4           0.0507563
           OZ4          -0.0005298   0.0174066
           HX5          -0.0554650  -0.0339990   0.1337302
           HY5          -0.0984677  -0.0407032   0.1995246   0.4239459
           HZ5          -0.0516317  -0.0332315   0.1266596   0.1855183   0.1234207
           HX6           0.0517618  -0.0321488   0.0091800  -0.0234944   0.0098314
           HY6          -0.1028947   0.0428220   0.0214127  -0.0319795   0.0220303
           HZ6           0.0537302  -0.0337922   0.0085448  -0.0222563   0.0092403
                             HX6         HY6         HZ6     
           HX6           0.1138191
           HY6          -0.1827023   0.4415616
           HZ6           0.1179388  -0.1937070   0.1257008


 Mass Weighted 2nd Derivative Matrix Eigenvalues
     1-  10    0.000000    0.000000    0.000000    0.000000    0.000000    0.000000    0.000502    0.000704    0.000795    0.001105
    11-  18    0.004351    0.013969    0.115712    0.119897    0.635854    0.647630    0.672151    0.678022

 Mass Weighted 2nd Derivative Matrix Eigenvectors
              1             2             3             4             5             6             7             8
    1   -0.02116358   -0.02496843   -0.00460783   -0.00575320   -0.00113141    0.94665748   -0.00247611   -0.04878218
    2    0.92481981   -0.16134331    0.19865921   -0.00557725    0.06379509    0.01824237   -0.03888830   -0.00103748
    3    0.07425897    0.64002646    0.16760425   -0.00695737    0.00067293    0.03888165   -0.00853608   -0.19946664
    4   -0.01207446   -0.01017551    0.01530582   -0.03411529    0.06254629    0.16313870    0.01999962    0.40671128
    5    0.14940175   -0.03252941    0.05949161    0.06401953    0.03625550    0.00327026    0.41022804   -0.02029632
    6    0.01797053    0.16051760    0.04285024   -0.00291696    0.00306833    0.00642327    0.00064377   -0.03159328
    7   -0.00322960   -0.00138975   -0.01999411    0.01560867   -0.01263759    0.26029177   -0.01455137   -0.14709777
    8    0.25821187    0.08780819   -0.44317025    0.23072096    0.24967517    0.00491268   -0.40541587    0.02352691
    9    0.01459153    0.15747049    0.05460948   -0.03314465    0.06052170   -0.06081629    0.00420959    0.37072043
   10   -0.10603737   -0.06466995    0.16698515   -0.39803604    0.80529254    0.01102195    0.00966845    0.17211852
   11   -0.11456641   -0.07018444    0.35313225    0.79888473    0.30162223    0.00180623    0.16865345   -0.00851394
   12    0.07200814    0.63836294    0.17421403   -0.02329251    0.03225275    0.00196740    0.00095853   -0.08389765
   13   -0.02872410    0.08942665   -0.35343374    0.09323730    0.42532035   -0.02852182    0.06159427   -0.38033570
   14   -0.06388447   -0.07750080    0.32970525    0.10607898   -0.03178281   -0.00006415   -0.26138616    0.01994073
   15    0.08627222    0.16022538    0.01186986   -0.03406582   -0.02759581    0.03476572    0.50622343    0.38583455
   16   -0.03022804   -0.12734809    0.45924409   -0.32478187    0.02799482   -0.02876847   -0.09569539   -0.37062601
   17   -0.06423962   -0.07185498    0.30872732    0.11720091   -0.02139923   -0.00007315   -0.26038538    0.01487971
   18   -0.04599441    0.16310312    0.06414128    0.05024322   -0.01045305    0.02959539   -0.48088927    0.40390707
              9            10            11            12            13            14            15            16
    1   -0.00541475    0.01323303    0.03414036   -0.00367024    0.03560178   -0.21845912    0.09533387    0.02517293
    2   -0.23727746    0.00275639   -0.00066349   -0.12992107   -0.00084843    0.00531102   -0.00164087   -0.00057343
    3   -0.00611828   -0.64731431   -0.11285054   -0.00197457   -0.02696268    0.14265775   -0.18140816   -0.02436604
    4   -0.00278156   -0.04564607    0.53490132    0.02541694   -0.10943910    0.70720892   -0.00666136    0.00126842
    5    0.10959889   -0.00327634   -0.01447325    0.88672232    0.00301105   -0.02035030   -0.00491737   -0.00080249
    6   -0.00085012   -0.16351450   -0.00587693    0.00490105   -0.00320930    0.03677558    0.87579384    0.13730343
    7    0.02104328    0.01816499   -0.17851538    0.00187378   -0.03151437    0.19213586   -0.37197409   -0.10057547
    8    0.66574786   -0.00613097    0.00220784    0.06837365    0.00030042   -0.00175692    0.01136007    0.00305626
    9   -0.00343222   -0.21017639    0.54811492    0.00025918    0.09888146   -0.60654633   -0.14992698   -0.03826672
   10   -0.00261269   -0.03950578   -0.25210238   -0.00463531    0.18758014    0.01849120   -0.02504490    0.13616895
   11    0.01796355    0.00007583    0.00836675   -0.15747606   -0.00429770   -0.00029480    0.00062429   -0.00324897
   12    0.00922545    0.69032343    0.11811513    0.00107527    0.19350665    0.03535966   -0.02504747    0.13562535
   13   -0.37909755    0.06978102    0.25773509    0.02226604   -0.36347432   -0.04957935    0.05182601   -0.28626685
   14    0.06005120   -0.00348574   -0.01312831    0.09367106    0.41736463    0.06653418    0.09664053   -0.55750358
   15    0.29959444    0.09505912   -0.27956265   -0.27269502   -0.38075236   -0.06981675    0.04803343   -0.26931656
   16    0.39281560    0.06236566    0.25419768   -0.01646908   -0.38468597   -0.05313172    0.04679173   -0.25718105
   17    0.03830644    0.00161002   -0.00529456    0.09616777   -0.40017488   -0.06441061   -0.09903336    0.57047752
   18   -0.30769047    0.10729174   -0.28364845    0.27111742   -0.37839891   -0.06959957    0.04857919   -0.27295580
             17            18
    1   -0.20057238    0.00001634
    2    0.00663524   -0.00004837
    3   -0.17019655    0.00001405
    4   -0.03143431   -0.00001492
    5   -0.00141840   -0.00065110
    6    0.39622113   -0.00003192
    7    0.83099320   -0.00006769
    8   -0.02505458    0.00010196
    9    0.28259893   -0.00002482
   10    0.00529568   -0.00715445
   11   -0.00013915   -0.27260383
   12    0.00543005    0.00075290
   13   -0.01141450    0.30424510
   14   -0.02415186    0.53694105
   15   -0.01109196    0.28699062
   16   -0.01019963   -0.27572562
   17    0.02474570    0.54980194
   18   -0.01133010   -0.28998927

   Low Vibration      Wavenumber
        Nr             [1/cm] 
        1                0.00
        2                0.00
        3                0.00
        4                0.00
        5                0.00
        6                0.00

     Vibration        Wavenumber
        Nr             [1/cm] 
        1              115.22
        2              136.38
        3              144.93
        4              170.84
        5              339.10
        6              607.55
        7             1748.61
        8             1779.95
        9             4099.05
       10             4136.83
       11             4214.42
       12             4232.78

 FREQUENCIES * CALCULATION OF NORMAL MODES FOR HF-SCF


 Atomic Coordinates

  Nr  Atom  Charge       X              Y              Z

   1   O     8.00    0.118089436   -0.003195449   -2.889504498
   2   H     1.00    0.038308915   -0.011115230   -1.105370686
   3   H     1.00   -1.573242304    0.047618422   -3.432433212
   4   O     8.00   -0.103955765    0.002754331    2.735845970
   5   H     1.00    0.692296894    1.407509126    3.483998267
   6   H     1.00    0.618324942   -1.437011460    3.492477350

 Gradient norm at reference geometry: 0.37928D-03

 Normal Modes

                              1 A         2 A         3 A         4 A         5 A  
 Wavenumbers [cm-1]          115.22      136.38      144.93      170.84      339.10
 Intensities [km/mol]          0.00        0.00        0.00        0.00        0.00
 Intensities [relative]        0.00        0.00        0.00        0.00        0.00
           OX1             -0.00062    -0.01220    -0.00135     0.00331     0.00854
           OY1             -0.00972    -0.00026    -0.05933     0.00069    -0.00017
           OZ1             -0.00213    -0.04987    -0.00153    -0.16185    -0.02822
           HX2              0.01992     0.40513    -0.00277    -0.04547     0.53282
           HY2              0.40863    -0.02022     0.10917    -0.00326    -0.01442
           HZ2              0.00064    -0.03147    -0.00085    -0.16288    -0.00585
           HX3             -0.01449    -0.14653     0.02096     0.01809    -0.17782
           HY3             -0.40384     0.02344     0.66316    -0.00611     0.00220
           HZ3              0.00419     0.36928    -0.00342    -0.20936     0.54598
           OX4              0.00242     0.04304    -0.00065    -0.00988    -0.06304
           OY4              0.04217    -0.00213     0.00449     0.00002     0.00209
           OZ4              0.00024    -0.02098     0.00231     0.17261     0.02953
           HX5              0.06135    -0.37886    -0.37762     0.06951     0.25673
           HY5             -0.26037     0.01986     0.05982    -0.00347    -0.01308
           HZ5              0.50425     0.38433     0.29843     0.09469    -0.27848
           HX6             -0.09532    -0.36918     0.39129     0.06212     0.25321
           HY6             -0.25937     0.01482     0.03816     0.00160    -0.00527
           HZ6             -0.47902     0.40234    -0.30649     0.10687    -0.28255

                              6 A         7 A         8 A         9 A        10 A  
 Wavenumbers [cm-1]          607.55     1748.61     1779.95     4099.05     4136.83
 Intensities [km/mol]          0.00        0.00        0.00        0.00        0.00
 Intensities [relative]        0.00        0.00        0.00        0.00        0.00
           OX1             -0.00092     0.00890    -0.05462     0.02384     0.00629
           OY1             -0.03249    -0.00021     0.00133    -0.00041    -0.00014
           OZ1             -0.00049    -0.00674     0.03567    -0.04536    -0.00609
           HX2              0.02532    -0.10901     0.70446    -0.00664     0.00126
           HY2              0.88327     0.00300    -0.02027    -0.00490    -0.00080
           HZ2              0.00488    -0.00320     0.03663     0.87239     0.13677
           HX3              0.00187    -0.03139     0.19139    -0.37053    -0.10018
           HY3              0.06811     0.00030    -0.00175     0.01132     0.00304
           HZ3              0.00026     0.09850    -0.60419    -0.14934    -0.03812
           OX4             -0.00116     0.04690     0.00462    -0.00626     0.03405
           OY4             -0.03938    -0.00107    -0.00007     0.00016    -0.00081
           OZ4              0.00027     0.04838     0.00884    -0.00626     0.03391
           HX5              0.02218    -0.36206    -0.04939     0.05162    -0.28515
           HY5              0.09331     0.41574     0.06628     0.09626    -0.55534
           HZ5             -0.27163    -0.37927    -0.06955     0.04785    -0.26827
           HX6             -0.01641    -0.38319    -0.05293     0.04661    -0.25618
           HY6              0.09579    -0.39862    -0.06416    -0.09865     0.56826
           HZ6              0.27006    -0.37693    -0.06933     0.04839    -0.27189

                             11 A        12 A  
 Wavenumbers [cm-1]         4214.42     4232.78
 Intensities [km/mol]          0.00        0.00
 Intensities [relative]        0.00        0.00
           OX1             -0.05015     0.00000
           OY1              0.00166    -0.00001
           OZ1             -0.04256     0.00000
           HX2             -0.03131    -0.00001
           HY2             -0.00141    -0.00065
           HZ2              0.39468    -0.00003
           HX3              0.82776    -0.00007
           HY3             -0.02496     0.00010
           HZ3              0.28150    -0.00002
           OX4              0.00132    -0.00179
           OY4             -0.00003    -0.06816
           OZ4              0.00136     0.00019
           HX5             -0.01137     0.30306
           HY5             -0.02406     0.53485
           HZ5             -0.01105     0.28587
           HX6             -0.01016    -0.27465
           HY6              0.02465     0.54766
           HZ6             -0.01129    -0.28886


 Normal Modes of low/zero frequencies

                                  1           2           3           4           5
 Wavenumbers [cm-1]            0.00        0.00        0.00        0.00        0.00
 Intensities [km/mol]          0.00        0.00        0.00        0.00        0.00
 Intensities [relative]        0.00        0.00        0.00        0.00        0.00
           OX1             -0.00529    -0.00624    -0.00115    -0.00144    -0.00028
           OY1              0.23124    -0.04034     0.04967    -0.00139     0.01595
           OZ1              0.01857     0.16003     0.04191    -0.00174     0.00017
           HX2             -0.01203    -0.01014     0.01525    -0.03398     0.06230
           HY2              0.14882    -0.03240     0.05926     0.06377     0.03611
           HZ2              0.01790     0.15989     0.04268    -0.00291     0.00306
           HX3             -0.00322    -0.00138    -0.01992     0.01555    -0.01259
           HY3              0.25721     0.08747    -0.44145     0.22982     0.24870
           HZ3              0.01453     0.15686     0.05440    -0.03302     0.06029
           OX4             -0.02651    -0.01617     0.04175    -0.09952     0.20136
           OY4             -0.02865    -0.01755     0.08830     0.19975     0.07542
           OZ4              0.01800     0.15962     0.04356    -0.00582     0.00806
           HX5             -0.02861     0.08908    -0.35206     0.09287     0.42367
           HY5             -0.06364    -0.07720     0.32842     0.10567    -0.03166
           HZ5              0.08594     0.15960     0.01182    -0.03393    -0.02749
           HX6             -0.03011    -0.12685     0.45746    -0.32352     0.02789
           HY6             -0.06399    -0.07158     0.30753     0.11675    -0.02132
           HZ6             -0.04582     0.16247     0.06389     0.05005    -0.01041

                                  6
 Wavenumbers [cm-1]            0.00
 Intensities [km/mol]          0.00
 Intensities [relative]        0.00
           OX1              0.23670
           OY1              0.00456
           OZ1              0.00972
           HX2              0.16250
           HY2              0.00326
           HZ2              0.00640
           HX3              0.25928
           HY3              0.00489
           HZ3             -0.06058
           OX4              0.00276
           OY4              0.00045
           OZ4              0.00049
           HX5             -0.02841
           HY5             -0.00006
           HZ5              0.03463
           HX6             -0.02866
           HY6             -0.00007
           HZ6              0.02948


 Frequencies dumped to record   5400.2
 Frequency information read from record  5400.2

 Zero point energy:  0.04949469 [H]    10862.83 [1/CM]      129.95 [KJ/MOL]


 **********************************************************************************************************************************
 DATASETS  * FILE   NREC   LENGTH (MB)   RECORD NAMES
              1      18       28.81       500      610      700      900      950      970     1000      129      960     1100   
                                          VAR    BASINP    GEOM    SYMINP    ZMAT    AOBASIS   BASIS     P2S    ABASIS      S 
                                         1400     1410     1200     1210     1080     1600     1650     1700   
                                           T        V       H0       H01     AOSYM     SMH    MOLCAS    OPER   

              2       7        0.57       700     1000      520     2100     5300     5450     5400   
                                         GEOM     BASIS   MCVARS     RHF     HESS     NMOD     FREQ   

              4       5        1.06      4100     4000     4200     4300     4400   

 PROGRAMS   *        TOTAL      FREQ      OPTG    HF-SCF       INT
 CPU TIMES  *        12.66      1.24     10.70      0.05      0.42
 REAL TIME  *        14.60 SEC
 DISK USED  *        29.65 MB (local),      206.65 MB (total)
 SF USED    *         1.06 MB
 GA USED    *         0.00 MB       (max)       0.00 MB       (current)
 **********************************************************************************************************************************

 Dump information in style MOLDEN to h2o_dimer.molden                                                                

 Molecular orbitals read from record     2100.2  Type=RHF/CANONICAL  
 Occupation numbers read from record     2100.2  Type=RHF/RHF  
 Orbital energies read from record       2100.2  Type=RHF/CANONICAL  
 Redundancy group numbers read from rec  2100.2  Type=RHF/RHF  

 DUMP ORBITAL  1.1 AS ORBITAL    1  occ=    2.0000  eig=  -20.5725  GROUP=   2
 DUMP ORBITAL  2.1 AS ORBITAL    2  occ=    2.0000  eig=  -20.5082  GROUP=   2
 DUMP ORBITAL  3.1 AS ORBITAL    3  occ=    2.0000  eig=   -1.3786  GROUP=   2
 DUMP ORBITAL  4.1 AS ORBITAL    4  occ=    2.0000  eig=   -1.3175  GROUP=   2
 DUMP ORBITAL  5.1 AS ORBITAL    5  occ=    2.0000  eig=   -0.7471  GROUP=   2
 DUMP ORBITAL  6.1 AS ORBITAL    6  occ=    2.0000  eig=   -0.6906  GROUP=   2
 DUMP ORBITAL  7.1 AS ORBITAL    7  occ=    2.0000  eig=   -0.6048  GROUP=   2
 DUMP ORBITAL  8.1 AS ORBITAL    8  occ=    2.0000  eig=   -0.5466  GROUP=   2
 DUMP ORBITAL  9.1 AS ORBITAL    9  occ=    2.0000  eig=   -0.5247  GROUP=   2
 DUMP ORBITAL 10.1 AS ORBITAL   10  occ=    2.0000  eig=   -0.4706  GROUP=   2

 Total charge:      20.000000
 Frequency information read from record  5400.2

 **********************************************************************************************************************************

 HF/6-311G(D,P) energy=   -152.102912677636

    OPTG(HF-SCF)          HF-SCF
   -152.10291268   -152.09521052
 **********************************************************************************************************************************
 Molpro calculation terminated
