
 Working directory              : /tmp/lme/molpro.1GzGJfy1co/
 Global scratch directory       : /tmp/lme/molpro.1GzGJfy1co/
 Wavefunction directory         : /home/lme/wfu/
 Main file repository           : /tmp/lme/molpro.1GzGJfy1co/

 id        : liedlgroup

 Nodes     nprocs
 sv1-c724     6
 GA implementation: MPI file
 GA implementation (serial work in mppx): MPI file

 Using customized tuning parameters: mindgm=1; mindgv=20; mindgc=4; mindgr=1; noblas=0; minvec=7
 default implementation of scratch files=sf  


 Variables initialized (1042), CPU time= 0.01 sec
 ***,water dimer
  memory, 600, m
                                                                                ! gthresh,optgrad=1.d-7,twoint=1.d-14,prefac=1.d-16
  orient,mass
  geometry={
 O,       -1.464,   0.099,   0.300
 H,       -1.956,   0.624,  -0.340
 H,       -1.797,  -0.799,   0.206
 O,        1.369,   0.146,  -0.395
 H,        1.894,   0.486,   0.335
 H,        0.451,   0.165,  -0.083
 }
 
  mass,iso
  basis=6-311g(d,p)
 
  {hf
  start,atden}
 
 
  optg
  {frequencies, symm=auto, print=0,analytical}
  put,molden, h2o_dimer.molden
 Commands initialized (847), CPU time= 0.02 sec, 718 directives.
 Default parameters read. Elapsed time= 0.14 sec

 Checking input...
 Passed
1


                                         ***  PROGRAM SYSTEM MOLPRO  ***
                                       Copyright, TTI GmbH Stuttgart, 2015
                                    Version 2024.1 linked Wed Jan 31 11:42:09 2024


 **********************************************************************************************************************************
 LABEL *   water dimer                                                                                                                                                   
  (6 PROC) 64 bit mpp version                                                            DATE: 06-May-24          TIME: 14:07:57  
 **********************************************************************************************************************************

 SHA1:             675817fde4514a4a933b69e420913a90cee4ef91
 **********************************************************************************************************************************

 Memory per process:       600 MW
 Total memory per node:   3600 MW

 GA preallocation disabled
 GA check disabled

 Variable memory set to 600.0 MW

 ZCENTRE=MASS


 Geometry recognized as XYZ



 Using masses of most abundant isotopes

 **********************************************************************************************************************************
 SETTING BASIS          =    6-311G(D,P)


 Recomputing integrals since basis changed


 Using spherical harmonics

 Library entry O      S 6-311G               selected for orbital group  1
 Library entry O      P 6-311G               selected for orbital group  1
 Library entry O      D 6-311G*              selected for orbital group  1
 Library entry H      S 6-311G               selected for orbital group  2
 Library entry H      P 6-311G**             selected for orbital group  2


 PROGRAM * SEWARD (Integral evaluation for generally contracted gaussian basis sets)     Author: Roland Lindh, 1990

 Geometry written to block  1 of record 700

 Orientation using atomic masses  
 Molecule type: Asymmetric top
 Rotational constants:       6.3819888      6.3794774    216.3780486 GHz

 Point group  C1  



 ATOMIC COORDINATES

 NR  ATOM    CHARGE       X              Y              Z

   1  O       8.00    0.004671213    0.119389063   -2.687445795
   2  H       1.00    1.416047628   -0.834857887   -3.326850599
   3  H       1.00   -1.477540529   -0.720117792   -3.324268605
   4  O       8.00   -0.005216505   -0.126422076    2.820117286
   5  H       1.00    0.063678937    1.539886351    3.540381076
   6  H       1.00    0.006468147    0.126708321    1.005145828

 Bond lengths in Bohr (Angstrom)

 1-2  1.819727763  1-3  1.818589205  4-5  1.816620566  4-6  1.832575489
     ( 0.962958462)     ( 0.962355963)     ( 0.961314205)     ( 0.969757186)

 Bond angles

  2-1-3  105.48728633   5-4-6  105.41068491

 NUCLEAR CHARGE:                   20
 NUMBER OF PRIMITIVE AOS:          96
 NUMBER OF SYMMETRY AOS:           94
 NUMBER OF CONTRACTIONS:           60   (   60A   )
 NUMBER OF INNER CORE ORBITALS:     0   (    0A   )
 NUMBER OF OUTER CORE ORBITALS:     2   (    2A   )
 NUMBER OF VALENCE ORBITALS:       12   (   12A   )


 NUCLEAR REPULSION ENERGY   36.50287162


 Eigenvalues of metric

         1 0.145E-01 0.191E-01 0.406E-01 0.407E-01 0.543E-01 0.897E-01 0.907E-01 0.987E-01


 Contracted 2-electron integrals neglected if value below      1.0D-11
 AO integral compression algorithm  1   Integral accuracy      1.0D-11

     6.554 MB (compressed) written to integral file ( 41.1%)

     Node minimum: 0.786 MB, node maximum: 1.311 MB


 NUMBER OF SORTED TWO-ELECTRON INTEGRALS:     279990.     BUFFER LENGTH:  32768
 NUMBER OF SEGMENTS:   1  SEGMENT LENGTH:     279990      RECORD LENGTH: 524288

 Memory used in sort:       0.84 MW

 SORT1 READ     2067964. AND WROTE      205961. INTEGRALS IN      1 RECORDS. CPU TIME:     0.03 SEC, REAL TIME:     0.04 SEC
 SORT2 READ     1206478. AND WROTE     1675365. INTEGRALS IN     30 RECORDS. CPU TIME:     0.01 SEC, REAL TIME:     0.02 SEC

 Node minimum:      278465.  Node maximum:      279990. integrals

 OPERATOR DM      FOR CENTER  0  COORDINATES:    0.000000    0.000000    0.000000


 **********************************************************************************************************************************
 DATASETS  * FILE   NREC   LENGTH (MB)   RECORD NAMES
              1      18       28.81       500      610      700      900      950      970     1000      129      960     1100   
                                          VAR    BASINP    GEOM    SYMINP    ZMAT    AOBASIS   BASIS     P2S    ABASIS      S 
                                         1400     1410     1200     1210     1080     1600     1650     1700   
                                           T        V       H0       H01     AOSYM     SMH    MOLCAS    OPER   

 PROGRAMS   *        TOTAL       INT
 CPU TIMES  *         0.64      0.40
 REAL TIME  *         1.22 SEC
 DISK USED  *        29.22 MB (local),      203.85 MB (total)
 GA USED    *         0.00 MB       (max)       0.00 MB       (current)
 **********************************************************************************************************************************


 Program * Restricted Hartree-Fock

 Orbital guess generated from atomic densities.

 Initial occupancy:  10

 NELEC=   20   SYM=1   MS2= 0   THRE=1.0D-08   THRD=1.0D-06   THRG=1.0D-06  HFMA2=F  DIIS_START=2   DIIS_MAX=10   DIIS_INCORE=F

 Level shifts:    0.00 (CLOSED)    0.00 (OPEN)    0.30 (GAP_MIN)

 ITER           ETOT              DE          GRAD        DDIFF     DIIS  NEXP   TIME(IT)  TIME(TOT)  DIAG
   1     -152.03009994    -152.03009994     0.00D+00     0.63D-01     0     0       0.00      0.03    start
   2     -152.08436217      -0.05426223     0.13D-01     0.95D-02     1     0       0.00      0.03    diag
   3     -152.10037347      -0.01601130     0.73D-02     0.32D-02     2     0       0.01      0.04    diag
   4     -152.10079468      -0.00042121     0.81D-03     0.65D-03     3     0       0.00      0.04    diag
   5     -152.10083267      -0.00003799     0.21D-03     0.25D-03     4     0       0.00      0.04    diag
   6     -152.10083442      -0.00000175     0.41D-04     0.51D-04     5     0       0.01      0.05    diag
   7     -152.10083451      -0.00000009     0.13D-04     0.93D-05     6     0       0.00      0.05    diag
   8     -152.10083453      -0.00000001     0.40D-05     0.41D-05     7     0       0.01      0.06    fixocc
   9     -152.10083453      -0.00000000     0.47D-06     0.58D-06     8     0       0.00      0.06    diag
  10     -152.10083453      -0.00000000     0.94D-07     0.79D-07     0     0       0.00      0.06    diag/orth

 Final occupancy:  10

 !RHF STATE 1.1 Energy               -152.100834526895
  RHF One-electron energy            -282.576902573144
  RHF Two-electron energy              93.973196422263
  RHF Kinetic energy                  152.065877493677
  RHF Nuclear energy                   36.502871623986
  RHF Virial quotient                  -1.000229880850

 !RHF STATE 1.1 Dipole moment           0.00273758     0.02773109    -1.13023040
 Dipole moment /Debye                   0.00695824     0.07048541    -2.87275915

 Orbital energies:

           1.1          2.1          3.1          4.1          5.1          6.1          7.1          8.1          9.1         10.1
    -20.578106   -20.510387    -1.370285    -1.304552    -0.735789    -0.680254    -0.602877    -0.545041    -0.520286    -0.467677

          11.1         12.1
      0.131155     0.194126


 HOMO     10.1    -0.467677 =     -12.7261eV
 LUMO     11.1     0.131155 =       3.5689eV
 LUMO-HOMO         0.598832 =      16.2950eV

 Orbitals saved in record  2100.2


 **********************************************************************************************************************************
 DATASETS  * FILE   NREC   LENGTH (MB)   RECORD NAMES
              1      18       28.81       500      610      700      900      950      970     1000      129      960     1100   
                                          VAR    BASINP    GEOM    SYMINP    ZMAT    AOBASIS   BASIS     P2S    ABASIS      S 
                                         1400     1410     1200     1210     1080     1600     1650     1700   
                                           T        V       H0       H01     AOSYM     SMH    MOLCAS    OPER   

              2       4        0.52       700     1000      520     2100   
                                         GEOM     BASIS   MCVARS     RHF  

 PROGRAMS   *        TOTAL    HF-SCF       INT
 CPU TIMES  *         0.71      0.08      0.40
 REAL TIME  *         1.29 SEC
 DISK USED  *        29.64 MB (local),      206.41 MB (total)
 GA USED    *         0.00 MB       (max)       0.00 MB       (current)
 **********************************************************************************************************************************


 PROGRAM * OPT (Geometry optimization)     Authors: F. Eckert and H.-J. Werner


 BFGS update of hessian

 *** Long output written to logfile /home/lme/Bachelor_Thesis_Lukas_Meinschad/Rechnungen/h2o_dimer_topology_test/h2o_dimer.log ***


 Geometry optimization using default procedure for command HF-SCF

 Geometry written to block  1 of record 700

 PQS Optimization using delocalized internal coordinates

 Point group c1. Number of degrees of freedom:   12

 ITER.   ENERGY(OLD)    ENERGY(NEW)      DE          GRADMAX     GRADNORM    GRADRMS     STEPMAX     STEPLEN     STEPRMS   CPU-time
   1  -152.10083453  -152.10277807    -0.00194354  0.02520519  0.04650104  0.01342369  0.05825721  0.08939226  0.02580532      0.45
   2  -152.10277807  -152.10285073    -0.00007266  0.00280038  0.00414904  0.00119772  0.02788547  0.03883777  0.01121150      0.91
   3  -152.10285073  -152.10288264    -0.00003191  0.00063346  0.00113988  0.00032906  0.02654873  0.04164205  0.01202102      1.36
   4  -152.10288264  -152.10289916    -0.00001653  0.00071865  0.00107332  0.00030984  0.02482075  0.04368034  0.01260943      1.82
   5  -152.10289916  -152.10290070    -0.00000154  0.00035204  0.00056959  0.00016443  0.00591024  0.01117614  0.00322627      2.26
   6  -152.10290070  -152.10290104    -0.00000034  0.00015304  0.00023927  0.00006907  0.00184311  0.00240391  0.00069395      2.69

 END OF GEOMETRY OPTIMIZATION.

 Geometry written to block  1 of record 700

 Recomputing wavefunction for reoriented structure

 Current geometry (xyz format, in Angstrom)

    6
 HF-SCF000/6-311G(D,P)  ENERGY=-152.10290104
 O         -0.0001229694        0.0605002215       -1.4519814327
 H          0.7530091032       -0.3938042425       -1.7889086047
 H         -0.7519563225       -0.3969369784       -1.7875726292
 O          0.0001548361       -0.0649419752        1.5213565105
 H         -0.0021231796        0.7998009445        1.8907700260
 H          0.0005646513        0.0614341121        0.5846786612

 **********************************************************************************************************************************


 **********************************************************************************************************************************
 DATASETS  * FILE   NREC   LENGTH (MB)   RECORD NAMES
              1      18       28.81       500      610      700      900      950      970     1000      129      960     1100   
                                          VAR    BASINP    GEOM    SYMINP    ZMAT    AOBASIS   BASIS     P2S    ABASIS      S 
                                         1400     1410     1200     1210     1080     1600     1650     1700   
                                           T        V       H0       H01     AOSYM     SMH    MOLCAS    OPER   

              2       4        0.52       700     1000      520     2100   
                                         GEOM     BASIS   MCVARS     RHF  

 PROGRAMS   *        TOTAL      OPTG    HF-SCF       INT
 CPU TIMES  *         3.77      3.06      0.08      0.40
 REAL TIME  *         4.72 SEC
 DISK USED  *        29.64 MB (local),      206.44 MB (total)
 SF USED    *         0.03 MB
 GA USED    *         0.00 MB       (max)       0.00 MB       (current)
 **********************************************************************************************************************************


 PROGRAM * HESSIAN

 PROGRAM * MCKINLEY (Hessian of the energy)     Author: A. Bernhardsson, R. Lindh

 Orbitals from record         2100.2

 Number of closed-shell orbitals: 10 ( 10 )
 Number of occupied orbitals:     10 ( 10 )

 Number of electrons= 20     Singlet     Space symmetry=1      Wavefunction type: CLOSED          


 McKinley needed      0.68 seconds of CPU time

 Entering CPHF calculation

 CPHF needed 139 iterations for 18 perturbations.  Total CPU time:    0.62 sec


 HF-SCF hessian saved to record  5300.2

 PROGRAM * FREQUENCIES (Calculation of harmonic vibrational spectra for HF-SCF)


 Permanent Dipole Moment [debye]
     1-   3    0.000000    0.000000    0.000000

 Dipole Moment Norm    0.0000000 [debye]

 Dipole Moment Derivatives [debye/ang]
              1             2             3             4             5             6             7             8
    1    0.00000000    0.00000000    0.00000000    0.00000000    0.00000000    0.00000000    0.00000000    0.00000000
    2    0.00000000    0.00000000    0.00000000    0.00000000    0.00000000    0.00000000    0.00000000    0.00000000
    3    0.00000000    0.00000000    0.00000000    0.00000000    0.00000000    0.00000000    0.00000000    0.00000000
              9            10            11            12            13            14            15            16
    1    0.00000000    0.00000000    0.00000000    0.00000000    0.00000000    0.00000000    0.00000000    0.00000000
    2    0.00000000    0.00000000    0.00000000    0.00000000    0.00000000    0.00000000    0.00000000    0.00000000
    3    0.00000000    0.00000000    0.00000000    0.00000000    0.00000000    0.00000000    0.00000000    0.00000000
             17            18
    1    0.00000000    0.00000000
    2    0.00000000    0.00000000
    3    0.00000000    0.00000000

 Projecting out rotations and translations

 Force Constants (Second Derivatives of the Energy) in [a.u.]
                             OX1         OY1         OZ1         HX2         HY2     
           OX1           0.8104021
           OY1           0.0011889   0.3455246
           OZ1          -0.0010751   0.2525861   0.2028234
           HX2          -0.4041580   0.1919220   0.1417859   0.4362690
           HY2           0.2431718  -0.1710909  -0.1272932  -0.2176219   0.1590377
           HZ2           0.1786234  -0.1258281  -0.0971326  -0.1617398   0.1181923
           HX3          -0.4029052  -0.1931067  -0.1407090  -0.0324135  -0.0257372
           HY3          -0.2443581  -0.1729083  -0.1274462   0.0255690   0.0119432
           HZ3          -0.1775516  -0.1262252  -0.0965653   0.0188676   0.0089159
           OX4           0.0045666   0.0000008   0.0000033  -0.0008107  -0.0002658
           OY4          -0.0000017   0.0036855  -0.0028918  -0.0000421  -0.0004912
           OZ4           0.0000040   0.0000441  -0.0070977  -0.0009989   0.0000037
           HX5          -0.0006464  -0.0000008  -0.0000013   0.0001997   0.0001677
           HY5          -0.0000005  -0.0002988   0.0008129   0.0000356   0.0000060
           HZ5          -0.0000041   0.0009868  -0.0010723   0.0000542  -0.0000625
           HX6          -0.0072590  -0.0000042  -0.0000038   0.0009135   0.0002855
           HY6          -0.0000004  -0.0049121   0.0042323   0.0001373   0.0005952
           HZ6           0.0000035  -0.0015637  -0.0009556   0.0020309   0.0002439
                             HZ2         HX3         HY3         HZ3         OX4     
           HZ2           0.0908317
           HX3          -0.0188347   0.4350192
           HY3           0.0087920   0.2189761   0.1608556
           HZ3           0.0067047   0.1606327   0.1184748   0.0902603
           OX4          -0.0016933  -0.0008115   0.0002664   0.0016922   0.0042406
           OY4           0.0010178   0.0000434  -0.0004920   0.0010254  -0.0014719
           OZ4           0.0002086   0.0009974   0.0000078   0.0002130  -0.0008066
           HX5           0.0001254   0.0002011  -0.0001676  -0.0001256  -0.0008188
           HY5          -0.0000769  -0.0000348   0.0000050  -0.0000777   0.0014080
           HZ5           0.0001143  -0.0000531  -0.0000636   0.0001137   0.0004880
           HX6           0.0035190   0.0009099  -0.0002858  -0.0035153  -0.0063663
           HY6          -0.0020972  -0.0001407   0.0005965  -0.0021131   0.0000625
           HZ6          -0.0007268  -0.0020334   0.0002353  -0.0007263   0.0003164
                             OY4         OZ4         HX5         HY5         HZ5     
           OY4           0.6034222
           OZ4           0.1161121   0.7241053
           HX5           0.0013594   0.0006328   0.0004530
           HY5          -0.5351132  -0.2296865  -0.0013920   0.5306455
           HZ5          -0.1669405  -0.1349647  -0.0006284   0.2212022   0.1542287
           HX6           0.0001129   0.0001712   0.0006115  -0.0000163   0.0001433
           HY6          -0.0710114   0.1135189   0.0000334   0.0047555  -0.0551224
           HZ6           0.0516770  -0.5824645  -0.0000030   0.0078260  -0.0184197
                             HX6         HY6         HZ6     
           HX6           0.0111903
           HY6          -0.0000920   0.0699762
           HZ6          -0.0003144  -0.0584185   0.6032929


 Atomic Masses
     1-   6   15.994910    1.007825    1.007825   15.994910    1.007825    1.007825

 Mass weighted Second Derivative Matrix
                             OX1         OY1         OZ1         HX2         HY2     
           OX1           0.0506663
           OY1           0.0000743   0.0216022
           OZ1          -0.0000672   0.0157917   0.0126805
           HX2          -0.1006625   0.0478015   0.0353142   0.4328817
           HY2           0.0605661  -0.0426131  -0.0317046  -0.2159322   0.1578029
           HZ2           0.0444892  -0.0313396  -0.0241925  -0.1604840   0.1172746
           HX3          -0.1003505  -0.0480965  -0.0350460  -0.0321618  -0.0255374
           HY3          -0.0608616  -0.0430658  -0.0317427   0.0253705   0.0118505
           HZ3          -0.0442223  -0.0314386  -0.0240512   0.0187211   0.0088467
           OX4           0.0002855   0.0000001   0.0000002  -0.0002019  -0.0000662
           OY4          -0.0000001   0.0002304  -0.0001808  -0.0000105  -0.0001223
           OZ4           0.0000002   0.0000028  -0.0004437  -0.0002488   0.0000009
           HX5          -0.0001610  -0.0000002  -0.0000003   0.0001981   0.0001664
           HY5          -0.0000001  -0.0000744   0.0002025   0.0000354   0.0000060
           HZ5          -0.0000010   0.0002458  -0.0002671   0.0000538  -0.0000620
           HX6          -0.0018080  -0.0000011  -0.0000010   0.0009064   0.0002833
           HY6          -0.0000001  -0.0012234   0.0010541   0.0001362   0.0005906
           HZ6           0.0000009  -0.0003895  -0.0002380   0.0020151   0.0002420
                             HZ2         HX3         HY3         HZ3         OX4     
           HZ2           0.0901265
           HX3          -0.0186884   0.4316416
           HY3           0.0087238   0.2172759   0.1596066
           HZ3           0.0066526   0.1593855   0.1175549   0.0895595
           OX4          -0.0004218  -0.0002021   0.0000664   0.0004215   0.0002651
           OY4           0.0002535   0.0000108  -0.0001225   0.0002554  -0.0000920
           OZ4           0.0000520   0.0002484   0.0000019   0.0000530  -0.0000504
           HX5           0.0001245   0.0001995  -0.0001663  -0.0001246  -0.0002039
           HY5          -0.0000763  -0.0000345   0.0000050  -0.0000771   0.0003507
           HZ5           0.0001134  -0.0000527  -0.0000631   0.0001128   0.0001215
           HX6           0.0034917   0.0009029  -0.0002836  -0.0034880  -0.0015856
           HY6          -0.0020809  -0.0001396   0.0005918  -0.0020967   0.0000156
           HZ6          -0.0007211  -0.0020176   0.0002335  -0.0007207   0.0000788
                             OY4         OZ4         HX5         HY5         HZ5     
           OY4           0.0377259
           OZ4           0.0072593   0.0452710
           HX5           0.0003386   0.0001576   0.0004495
           HY5          -0.1332792  -0.0572074  -0.0013812   0.5265254
           HZ5          -0.0415794  -0.0336153  -0.0006235   0.2194848   0.1530312
           HX6           0.0000281   0.0000426   0.0006067  -0.0000161   0.0001422
           HY6          -0.0176866   0.0282738   0.0000331   0.0047186  -0.0546944
           HZ6           0.0128710  -0.1450728  -0.0000030   0.0077653  -0.0182767
                             HX6         HY6         HZ6     
           HX6           0.0111034
           HY6          -0.0000913   0.0694329
           HZ6          -0.0003120  -0.0579649   0.5986088


 Mass Weighted 2nd Derivative Matrix Eigenvalues
     1-  10    0.000000    0.000000    0.000000    0.000000    0.000000    0.000000    0.000469    0.000655    0.000731    0.001124
    11-  18    0.004903    0.014109    0.115923    0.119430    0.634976    0.647142    0.672204    0.677316

 Mass Weighted 2nd Derivative Matrix Eigenvectors
              1             2             3             4             5             6             7             8
    1    0.93526479    0.06864930    0.02414970   -0.00159054    0.00560245    0.00943555    0.14427397   -0.00069333
    2   -0.06893474    0.91878195    0.06450047   -0.01354507    0.01783098   -0.02408605    0.00068268    0.13280392
    3   -0.00914628    0.03601685   -0.01560603    0.01041446    0.02969415    0.66493605    0.00037797   -0.03440209
    4    0.21402934    0.03712315   -0.29732580   -0.01960000   -0.03531016   -0.00417734   -0.23189228   -0.00134307
    5   -0.09578562    0.28653528   -0.47607358    0.01410643   -0.07030301   -0.01714502   -0.08303686   -0.30548761
    6    0.05717337   -0.02187930   -0.01832171   -0.06391045    0.02621155    0.16724351   -0.48544795    0.44281886
    7    0.21360974    0.03723917   -0.29937731   -0.01945007   -0.03548835   -0.00423193   -0.23135334    0.00419961
    8    0.05728243    0.22698692    0.51656448   -0.00842847    0.02855357    0.00741548    0.08058286   -0.30547775
    9   -0.05656452   -0.03081697   -0.00168300    0.05214837    0.05728993    0.16334770    0.48834893    0.44059593
   10   -0.01090078    0.01995655   -0.17418291    0.91981081    0.21556394   -0.02929715   -0.01520236   -0.00006618
   11   -0.00275759   -0.00080719   -0.09415301   -0.23296438    0.90926747   -0.06608750   -0.00015480   -0.03714419
   12   -0.00626593   -0.00277516   -0.02228093    0.00107129    0.06728336    0.66316767   -0.00119268   -0.27176732
   13    0.05728854   -0.03128124    0.53074504    0.24645560    0.11842530    0.00580741   -0.46297790    0.00202236
   14    0.00160684   -0.02897296   -0.02705650   -0.06535539    0.25619358   -0.01786117   -0.00146512   -0.18705739
   15   -0.00658443    0.06642676    0.00596136    0.01646429   -0.04814750    0.16952485    0.00020807    0.34660189
   16    0.08091706    0.00542904    0.02925153    0.15672698    0.04320667   -0.00287344    0.41202707   -0.00185316
   17   -0.00597584    0.07253495   -0.01141619   -0.04111946    0.15771647   -0.01327582    0.00181615    0.41693283
   18   -0.00224912    0.00911729   -0.00391254    0.00257844    0.00736933    0.16691477    0.00013660   -0.01029671
              9            10            11            12            13            14            15            16
    1    0.01577665   -0.00000793    0.00076098   -0.15657839    0.00030496    0.00000342    0.00003423   -0.00018751
    2   -0.00020126   -0.04833336   -0.23482236   -0.00043138   -0.21420706    0.01163711   -0.02836303    0.15449612
    3    0.00095539    0.70234091    0.13880099    0.00010446   -0.16530547    0.02434099   -0.02119284    0.11455772
    4    0.06694772    0.00251357    0.00242530    0.09418618    0.41138361   -0.04500848   -0.09874988    0.56419111
    5    0.35977988    0.08734674    0.22178993    0.01055843    0.42834889   -0.03810654    0.05589391   -0.30708124
    6   -0.34242370    0.04795257   -0.33349554    0.28162701    0.32390929   -0.04674722    0.04093037   -0.22968797
    7    0.06903320   -0.00275996   -0.00423225    0.09371977   -0.41259591    0.04507142    0.09861922   -0.56344285
    8   -0.35894233    0.08792603    0.22219726   -0.00999063    0.42664675   -0.03789790    0.05632448   -0.30950562
    9    0.34192645    0.04626158   -0.33324287   -0.28208067    0.32464446   -0.04682168    0.04077290   -0.22874446
   10   -0.24467872    0.00029617    0.00002730   -0.12516282    0.00005204    0.00044193   -0.00012405   -0.00004587
   11   -0.00043842    0.01612103    0.04864122   -0.00026992   -0.02598052   -0.23223081    0.11039805    0.02710332
   12   -0.00083342   -0.62307885   -0.11139150   -0.00018012    0.01660583    0.12179029   -0.17323636   -0.02250475
   13    0.64983435   -0.00056466    0.00002747    0.05106270   -0.00001872   -0.00011502    0.00095027    0.00025709
   14    0.00162610    0.04042494   -0.22293510    0.00009018    0.02754668    0.24944160   -0.35171104   -0.09586500
   15    0.00011112   -0.24220807    0.51725447    0.00009352   -0.06472840   -0.59074834   -0.18086177   -0.04714167
   16    0.12608647   -0.00033727   -0.00136084    0.88343407   -0.00019122   -0.00172208   -0.00046180   -0.00007558
   17    0.00008472   -0.08737000    0.52065775    0.00213588    0.07431873    0.70536566   -0.08731908   -0.01100534
   18   -0.00009980   -0.16777086    0.04028978    0.00066154    0.00856540    0.10215837    0.87372699    0.13885278
             17            18
    1   -0.00001766   -0.27254181
    2    0.00606197   -0.00054861
    3    0.00461757    0.00025622
    4    0.02410452    0.54379664
    5   -0.01221729   -0.32793737
    6   -0.00952109   -0.24436662
    7   -0.02403200    0.54272207
    8   -0.01229428    0.33012448
    9   -0.00946061    0.24334755
   10    0.00056868   -0.00006959
   11   -0.18489285    0.00000637
   12   -0.18712605    0.00000865
   13   -0.00212933    0.00013205
   14    0.80374141   -0.00002915
   15    0.36017232   -0.00001303
   16   -0.00013836   -0.00061944
   17   -0.06680203    0.00000223
   18    0.38588799   -0.00002309

   Low Vibration      Wavenumber
        Nr             [1/cm] 
        1                0.00
        2                0.00
        3                0.00
        4                0.00
        5                0.00
        6                0.00

     Vibration        Wavenumber
        Nr             [1/cm] 
        1              111.32
        2              131.58
        3              138.94
        4              172.35
        5              359.93
        6              610.59
        7             1750.20
        8             1776.49
        9             4096.22
       10             4135.27
       11             4214.58
       12             4230.58

 FREQUENCIES * CALCULATION OF NORMAL MODES FOR HF-SCF


 Atomic Coordinates

  Nr  Atom  Charge       X              Y              Z

   1   O     8.00   -0.000232379    0.114328849   -2.743847246
   2   H     1.00    1.422980974   -0.744182165   -3.380547325
   3   H     1.00   -1.420991507   -0.750102178   -3.378022697
   4   O     8.00    0.000292598   -0.122722547    2.874947143
   5   H     1.00   -0.004012228    1.511404739    3.573037514
   6   H     1.00    0.001067036    0.116093647    1.104882541

 Gradient norm at reference geometry: 0.35424D-03

 Normal Modes

                              1 A         2 A         3 A         4 A         5 A  
 Wavenumbers [cm-1]          111.32      131.58      138.94      172.35      359.93
 Intensities [km/mol]          0.00        0.00        0.00        0.00        0.00
 Intensities [relative]        0.00        0.00        0.00        0.00        0.00
           OX1              0.03607    -0.00017     0.00394    -0.00000     0.00019
           OY1              0.00017     0.03321    -0.00005    -0.01209    -0.05871
           OZ1              0.00009    -0.00860     0.00024     0.17561     0.03471
           HX2             -0.23099    -0.00134     0.06669     0.00250     0.00242
           HY2             -0.08271    -0.30430     0.35838     0.08701     0.22093
           HZ2             -0.48356     0.44110    -0.34109     0.04777    -0.33220
           HX3             -0.23045     0.00418     0.06876    -0.00275    -0.00422
           HY3              0.08027    -0.30429    -0.35755     0.08758     0.22133
           HZ3              0.48645     0.43888     0.34060     0.04608    -0.33195
           OX4             -0.00380    -0.00002    -0.06118     0.00007     0.00001
           OY4             -0.00004    -0.00929    -0.00011     0.00403     0.01216
           OZ4             -0.00030    -0.06795    -0.00021    -0.15579    -0.02785
           HX5             -0.46118     0.00201     0.64731    -0.00056     0.00003
           HY5             -0.00146    -0.18633     0.00162     0.04027    -0.22207
           HZ5              0.00021     0.34525     0.00011    -0.24127     0.51524
           HX6              0.41042    -0.00185     0.12560    -0.00034    -0.00136
           HY6              0.00181     0.41531     0.00008    -0.08703     0.51863
           HZ6              0.00014    -0.01026    -0.00010    -0.16712     0.04013

                              6 A         7 A         8 A         9 A        10 A  
 Wavenumbers [cm-1]          610.59     1750.20     1776.49     4096.22     4135.27
 Intensities [km/mol]          0.00        0.00        0.00        0.00        0.00
 Intensities [relative]        0.00        0.00        0.00        0.00        0.00
           OX1             -0.03915     0.00008     0.00000     0.00001    -0.00005
           OY1             -0.00011    -0.05356     0.00291    -0.00709     0.03863
           OZ1              0.00003    -0.04133     0.00609    -0.00530     0.02864
           HX2              0.09382     0.40978    -0.04483    -0.09837     0.56200
           HY2              0.01052     0.42668    -0.03796     0.05568    -0.30589
           HZ2              0.28053     0.32265    -0.04657     0.04077    -0.22879
           HX3              0.09336    -0.41099     0.04490     0.09824    -0.56125
           HY3             -0.00995     0.42499    -0.03775     0.05611    -0.30830
           HZ3             -0.28098     0.32338    -0.04664     0.04061    -0.22785
           OX4             -0.03130     0.00001     0.00011    -0.00003    -0.00001
           OY4             -0.00007    -0.00650    -0.05807     0.02760     0.00678
           OZ4             -0.00005     0.00415     0.03045    -0.04332    -0.00563
           HX5              0.05086    -0.00002    -0.00011     0.00095     0.00026
           HY5              0.00009     0.02744     0.24847    -0.35034    -0.09549
           HZ5              0.00009    -0.06448    -0.58845    -0.18016    -0.04696
           HX6              0.88000    -0.00019    -0.00172    -0.00046    -0.00008
           HY6              0.00213     0.07403     0.70262    -0.08698    -0.01096
           HZ6              0.00066     0.00853     0.10176     0.87033     0.13831

                             11 A        12 A  
 Wavenumbers [cm-1]         4214.58     4230.58
 Intensities [km/mol]          0.00        0.00
 Intensities [relative]        0.00        0.00
           OX1             -0.00000    -0.06815
           OY1              0.00152    -0.00014
           OZ1              0.00115     0.00006
           HX2              0.02401     0.54168
           HY2             -0.01217    -0.32666
           HZ2             -0.00948    -0.24342
           HX3             -0.02394     0.54061
           HY3             -0.01225     0.32884
           HZ3             -0.00942     0.24240
           OX4              0.00014    -0.00002
           OY4             -0.04623     0.00000
           OZ4             -0.04679     0.00000
           HX5             -0.00212     0.00013
           HY5              0.80062    -0.00003
           HZ5              0.35877    -0.00001
           HX6             -0.00014    -0.00062
           HY6             -0.06654     0.00000
           HZ6              0.38439    -0.00002


 Normal Modes of low/zero frequencies

                                  1           2           3           4           5
 Wavenumbers [cm-1]            0.00        0.00        0.00        0.00        0.00
 Intensities [km/mol]          0.00        0.00        0.00        0.00        0.00
 Intensities [relative]        0.00        0.00        0.00        0.00        0.00
           OX1              0.23385     0.01717     0.00604    -0.00040     0.00140
           OY1             -0.01724     0.22973     0.01613    -0.00339     0.00446
           OZ1             -0.00229     0.00901    -0.00390     0.00260     0.00742
           HX2              0.21320     0.03698    -0.29617    -0.01952    -0.03517
           HY2             -0.09541     0.28542    -0.47422     0.01405    -0.07003
           HZ2              0.05695    -0.02179    -0.01825    -0.06366     0.02611
           HX3              0.21278     0.03709    -0.29821    -0.01937    -0.03535
           HY3              0.05706     0.22610     0.51456    -0.00840     0.02844
           HZ3             -0.05634    -0.03070    -0.00168     0.05195     0.05707
           OX4             -0.00273     0.00499    -0.04355     0.22999     0.05390
           OY4             -0.00069    -0.00020    -0.02354    -0.05825     0.22735
           OZ4             -0.00157    -0.00069    -0.00557     0.00027     0.01682
           HX5              0.05707    -0.03116     0.52868     0.24550     0.11796
           HY5              0.00160    -0.02886    -0.02695    -0.06510     0.25520
           HZ5             -0.00656     0.06617     0.00594     0.01640    -0.04796
           HX6              0.08060     0.00541     0.02914     0.15612     0.04304
           HY6             -0.00595     0.07225    -0.01137    -0.04096     0.15710
           HZ6             -0.00224     0.00908    -0.00390     0.00257     0.00734

                                  6
 Wavenumbers [cm-1]            0.00
 Intensities [km/mol]          0.00
 Intensities [relative]        0.00
           OX1              0.00236
           OY1             -0.00602
           OZ1              0.16626
           HX2             -0.00416
           HY2             -0.01708
           HZ2              0.16659
           HX3             -0.00422
           HY3              0.00739
           HZ3              0.16271
           OX4             -0.00733
           OY4             -0.01652
           OZ4              0.16582
           HX5              0.00578
           HY5             -0.01779
           HZ5              0.16887
           HX6             -0.00286
           HY6             -0.01322
           HZ6              0.16627


 Frequencies dumped to record   5400.2
 Frequency information read from record  5400.2

 Zero point energy:  0.04950013 [H]    10864.02 [1/CM]      129.96 [KJ/MOL]


 **********************************************************************************************************************************
 DATASETS  * FILE   NREC   LENGTH (MB)   RECORD NAMES
              1      18       28.81       500      610      700      900      950      970     1000      129      960     1100   
                                          VAR    BASINP    GEOM    SYMINP    ZMAT    AOBASIS   BASIS     P2S    ABASIS      S 
                                         1400     1410     1200     1210     1080     1600     1650     1700   
                                           T        V       H0       H01     AOSYM     SMH    MOLCAS    OPER   

              2       7        0.57       700     1000      520     2100     5300     5450     5400   
                                         GEOM     BASIS   MCVARS     RHF     HESS     NMOD     FREQ   

              4       5        1.06      4100     4000     4200     4300     4400   

 PROGRAMS   *        TOTAL      FREQ      OPTG    HF-SCF       INT
 CPU TIMES  *         5.09      1.31      3.06      0.08      0.40
 REAL TIME  *         6.09 SEC
 DISK USED  *        29.64 MB (local),      206.44 MB (total)
 SF USED    *         1.06 MB
 GA USED    *         0.00 MB       (max)       0.00 MB       (current)
 **********************************************************************************************************************************

 Dump information in style MOLDEN to h2o_dimer.molden                                                                

 Molecular orbitals read from record     2100.2  Type=RHF/CANONICAL  
 Occupation numbers read from record     2100.2  Type=RHF/RHF  
 Orbital energies read from record       2100.2  Type=RHF/CANONICAL  
 Redundancy group numbers read from rec  2100.2  Type=RHF/RHF  

 DUMP ORBITAL  1.1 AS ORBITAL    1  occ=    2.0000  eig=  -20.5716  GROUP=   2
 DUMP ORBITAL  2.1 AS ORBITAL    2  occ=    2.0000  eig=  -20.5098  GROUP=   2
 DUMP ORBITAL  3.1 AS ORBITAL    3  occ=    2.0000  eig=   -1.3776  GROUP=   2
 DUMP ORBITAL  4.1 AS ORBITAL    4  occ=    2.0000  eig=   -1.3189  GROUP=   2
 DUMP ORBITAL  5.1 AS ORBITAL    5  occ=    2.0000  eig=   -0.7458  GROUP=   2
 DUMP ORBITAL  6.1 AS ORBITAL    6  occ=    2.0000  eig=   -0.6924  GROUP=   2
 DUMP ORBITAL  7.1 AS ORBITAL    7  occ=    2.0000  eig=   -0.6035  GROUP=   2
 DUMP ORBITAL  8.1 AS ORBITAL    8  occ=    2.0000  eig=   -0.5481  GROUP=   2
 DUMP ORBITAL  9.1 AS ORBITAL    9  occ=    2.0000  eig=   -0.5238  GROUP=   2
 DUMP ORBITAL 10.1 AS ORBITAL   10  occ=    2.0000  eig=   -0.4722  GROUP=   2

 Total charge:      20.000000
 Frequency information read from record  5400.2

 **********************************************************************************************************************************

 HF/6-311G(D,P)//HF/6-311G(D,P) energy=   -152.102901039904

    OPTG(HF-SCF)          HF-SCF
   -152.10290104   -152.10083453
 **********************************************************************************************************************************
 Molpro calculation terminated
