[Molden Format]
[Molpro variables]
_NUMVAR=  1076.000000000000    
_AVOGAD= 0.6022140760000000E+24
_BOLTZ= 0.1380649000000000E-22
_CLIGHTSI=  299792458.0000000    
_JOULE= 0.4359744722207100E-17
_JPCAL=  4.184000000000000    
_PLANCK= 0.6626070150000000E-33
_BOHR= 0.5291772109030000E-10
_ECHARG= 0.1602176634000000E-18
_ENULL= 0.8854187812800001E-11
_MU= 0.1660539066600000E-26
_EMASS= 0.9109383701500001E-30
_AMU2AU=  1822.888486217313    
_CLIGHT=  29979245800.00000    
_EV= 0.3674932217565494E-01
_KJOULE= 0.3808798847133432E-03
_KJOULE/MOL= 0.3808798847133432E-03
_CM= 0.4556335252912009E-05
_CM-1= 0.4556335252912009E-05
_DEB2SI= 0.3335640951981520E-29
_KCAL= 0.1593601437640628E-02
_KCAL/MOL= 0.1593601437640628E-02
_KELVIN= 0.3166811563455608E-05
_HERTZ= 0.1519829846057038E-15
_HZ= 0.1519829846057038E-15
_TOA= 0.5291772109030000    
_TOANG= 0.5291772109030000    
_TORAD= 0.1745329251994330E-01
_TOCM=  219474.6313631965    
_TODEBYE=  2.541746473194078    
_TOE= 0.4803204712570263E-09
_TOEV=  27.21138624598803    
_TOHERTZ=  6579683920501656.    
_TOHZ=  6579683920501656.    
_TOK=  315775.0248040668    
_TOKCAL=  627.5094740630558    
_TOKELVIN=  315775.0248040668    
_TOKJ=  2625.499639479825    
_TOKJOULE=  2625.499639479825    
_TOKG= 0.1660539066600000E-26
_ANG=  1.889726124625770    
_ANGSTROM=  1.889726124625770    
_RPAREF=  0.000000000000000    
_RPADISS=  0.000000000000000    
_IGNORE_UNDEF=  2.000000000000000    
_STRICTCHECK=  0.000000000000000    
!SEWARD=  0.000000000000000    
!MULTI=  0.000000000000000    
!DFMULTI=  0.000000000000000    
!NUMHESS=  0.000000000000000    
_SEW_ONEEL=  0.000000000000000    
_CPPDONE=FALSE
_DKROLL_DONE=  0.000000000000000    
_FNUC_DONE=  0.000000000000000    
_FOCKDONE=TRUE
_GRADONE=FALSE
_HESSDONE=TRUE
_INTDONE=TRUE
_SCFDONE=TRUE
_MODUL_BLOCK=FALSE
_MODUL_SLATER=TRUE
_MODUL_MRCC=FALSE
_MODUL_NBO6=FALSE
_MODUL_NECI=FALSE
_MODUL_AIMS=TRUE
_MODUL_HDF5=FALSE
_MODUL_GECCO=FALSE
_ISWINDOWS=FALSE
_MRCC_EXEC=
_FITC_AO_SAVED=FALSE
_FITC_MO_SAVED=FALSE
_LSTYP=SEWARD
_INTYP=INTS
_GEOMTYP=XYZ
_GRADTYP=ALASKA
_DIRECT=FALSE
_DKHO= -1.000000000000000    
_FNUC=  0.000000000000000    
_SYNCM=  0.000000000000000    
_BASIS=6-311G(D,P)
_ZCENTRE=MASS
_ZORIENT=  1.000000000000000    
_NELEC=  20.00000000000000    
!SPIN=  0.000000000000000    
_OPTCONV= 0.3299177961310912E-01
_QSDSTEP=  0.000000000000000    
_QSDIRC=  0.000000000000000    
_PROGRAM=FREQ
_CPUSTEP=  1.250000000000000    
_SYSSTEP= 0.8000000000000007E-01
_WALLSTEP=  1.320000000000000    
!DFSCF=  0.000000000000000    
!SCSGRD=  0.000000000000000    
_NCEN=  6.000000000000000    
_CPUTOT=  12.66000000000000    
_DFTEXFAC=  1.000000000000000    
_DMX=-0.8104488242077001E-01
_DMY= 0.2794702781779875E-02
_DMZ=  1.266182762968474    
_DMX_SCF=-0.8104488242077001E-01
_DMY_SCF= 0.2794702781779875E-02
_DMZ_SCF=  1.266182762968474    
_FREQUENCIES= 0.5020265588523136E-04
_HOMO=  10.10000000000000    
_EHOMO=-0.4706405850126719    
_LUMO=  11.10000000000000    
_ELUMO= 0.1334554009621916    
_ENERGY= -152.1029126776361    
_ENERGY_METHOD=HF
_ENERGY_BASIS=6-311G(D,P)
_GEOMETRY_METHOD=
_GEOMETRY_BASIS=
_ENUC=  36.51034563303854    
_GRADENERG= -152.1029119736444    
_GRADEXFAC=  9999.000000000000    
_GRADMETHOD=  1.000000000000000    
_NMRMETHOD=  0.000000000000000    
_NMRMAGNET=  0.000000000000000    
_VIRIAL=-0.2556623834256136E-03
!GRID_FREEZE= -1.000000000000000    
!NEESE_INDEX=  0.000000000000000    
_ITERATIONS=  13.00000000000000    
_LASTNELEC=  20.00000000000000    
_LASTSPIN=  0.000000000000000    
_LASTSYM=  1.000000000000000    
_MPP_PROG=  1.000000000000000    
_MSNSTATES=  0.000000000000000    
_RS2PHASE=  0.000000000000000    
_NPROC_MPP=  6.000000000000000    
_NPROC_SMP=  6.000000000000000    
_NUMSTEP=  0.000000000000000    
_OPTCONVMX= 0.2990368489080095E-01
_OPTCONVRMS= 0.9523906420336681E-02
_OPTGRAD= 0.2013320214616972E-03
_OPTGRADMX= 0.1237090271849780E-03
_OPTGRADRMS= 0.5811954839370119E-04
!GMAXLAST= 0.1237090271849780E-03
!DMAXLAST= 0.2990368489080095E-01
!DELAST= 0.1660664082692165E-05
_OPTSTEP=  22.00000000000000    
_ORBITAL=  2100.200000000000    
_PI=  3.141592653589793    
_SEIG_MIN= 0.1412307772548966E-01
_SEWPROP=TRUE
_STATUS=  1.000000000000000    
_SYSTOT=  1.910000000000000    
_VERSION=  2024001.000000000    
_WALLTOT=  14.60000000000000    
_ZPE= 0.4949469393414746E-01
_DATE=16-Sep-24
_LASTORB=0
_OUTPUT=/home/lme/Theoretische_Chemie/Nomodeco/deuterium_calculations/h2o_dimer/h2o_dimer.out
_PGROUP=C1
_TIME=11:15:46
_LIBMOL=/usr/local/molpro/molpro_2024.1.0_sockets/lib/
_VIGRDC=  0.000000000000000    
!VIBCNT=  0.000000000000000    
!SURFREC=  0.000000000000000    
!XSURFREC=  0.000000000000000    
!XPOLYREC=  0.000000000000000    
!ROTREC=  0.000000000000000    
!POLYREC=  0.000000000000000    
!DIPREC=  0.000000000000000    
!DIP4DREC=  0.000000000000000    
!DIPROT=  0.000000000000000    
!DIP4DROT=  0.000000000000000    
!PTREC=  0.000000000000000    
!PT4DREC=  0.000000000000000    
!VSCFREC=  0.000000000000000    
!VCIREC=  0.000000000000000    
!PVCIREC=  0.000000000000000    
!VMP2REC=  0.000000000000000    
!VMCSCFREC=  0.000000000000000    
!VMRCIREC=  0.000000000000000    
!VIBSTATEREC=  0.000000000000000    
!VIBSTATECNT=  0.000000000000000    
!VIBINFO=  0.000000000000000    
!GAREC=  0.000000000000000    
!SCFORB=  21002.00000000000    
!DEFCORE=  2.000000000000000    
!SCORE=  0.000000000000000    
!NEWMOL=  0.000000000000000    
!NEWSYM=  0.000000000000000    
_SLFILES=slscratch
_NGSSTO=  9.000000000000000    
_SIN=SIN
_COS=COS
_TAN=TAN
_ACOS=ACOS
_ASIN=ASIN
_ATAN=ATAN
_COSH=COSH
_SINH=SINH
_TANH=TANH
_ABS=ABS
_MOD=MOD
_ERF=ERF
_REFC=REFC
_ERFC=ERFC
_HYPOT=HYPOT
_J0=J0
_J1=J1
_JN=JN
_GAMMA=GAMMA
_LGAMMA=LGAMMA
_Y0=Y0
_Y1=Y1
_YN=YN
_EXP=EXP
_LOG=LOG
_LOG10=LOG10
_SQRT=SQRT
_INT=INT
_NINT=NINT
_MAX=MAX
_MIN=MIN
_COSMO=  0.000000000000000    
_COSMOIT=  0.000000000000000    
_COSMOES=  0.000000000000000    
_COSMOEDS=  0.000000000000000    
_COSMOEC=  0.000000000000000    
_COSMOEDCORR=  0.000000000000000    
_FEPSI=  1.000000000000000    
_SL_IsMM=  0.000000000000000    
_SL_NSYM=  1.000000000000000    
_SL_System_BitSw=  0.000000000000000    
_SL_Unique_atoms=  0.000000000000000    
_SL_GRAD=  0.000000000000000    
_SL_MAXUPD_Hess=  5.000000000000000    
_SL_N_PRINT_COD=  5.000000000000000    
_SL_PRINT_CODES=  0.000000000000000    
_SL_BasType=  0.000000000000000    
_SL_Energy_Pred=  0.000000000000000    
_SL_New_Coords=  0.000000000000000    
_SL_Total_Nuclea=  0.000000000000000    
_SL_Highest_Mltp=  0.000000000000000    
_SL_Ref_Geom=  0.000000000000000    
_SL_Symmetry_ope=  1.000000000000000    
_SL_agrad=  0.000000000000000    
_SL_GrdMax=  0.000000000000000    
_SL_GrdNorm=  0.000000000000000    
_SL_GrdRMS=  0.000000000000000    
_SL_Hss_Q=  0.000000000000000    
_SL_Hss_X=  0.000000000000000    
_SL_BMxOld=  0.000000000000000    
_SL_KtB=  0.000000000000000    
_SL_TROld=  0.000000000000000    
_SL_No_of_Intern=  0.000000000000000    
_SL_Hess=  0.000000000000000    
_SL_K=  0.000000000000000    
!LATTICE= -1.000000000000000    
!NEWLATTICE=  0.000000000000000    
!LATGRAD_VAR=FALSE
!SEW_LATTICE=  1.000000000000000    
!AIC_ONEEL=  0.000000000000000    
!LOCAL=  0.000000000000000    
!SAVEDOM= -1.000000000000000    
!RESTDOM= -1.000000000000000    
!SAVEDOM_HF= -1.000000000000000    
!RESTDOM_HF= -1.000000000000000    
!HESSREC=  5300.200000000000    
!FREQREC=  5400.200000000000    
!NMODREC=  5450.200000000000    
!GTASKS=  0.000000000000000    
!HTASKS=  0.000000000000000    
!SAVEDOM_EOM= -1.000000000000000    
!RESTDOM_EOM= -1.000000000000000    
!GRADSTATE= -1.000000000000000    
!DEBUG=  0.000000000000000    
!CFIT_CPHF=  0.000000000000000    
!RDOMAUX_CPHF=  0.000000000000000    
!THRAO_CPHF= 0.1000000000000000E-11
!THRMO_CPHF= 0.1000000000000000E-11
!THROV_CPHF= 0.1000000000000000E-13
!THRSW_CPHF= 0.1000000000000000E-11
!THRPROD_CPHF= 0.1000000000000000E-11
!THRAOPR_CPHF= 0.1000000000000000E-11
!CFIT_SCFGRD=  0.000000000000000    
!RDOMAUX_SCFGRD=  0.000000000000000    
!THRAO_SCFGRD= 0.1000000000000000E-11
!THRMO_SCFGRD= 0.1000000000000000E-11
!THROV_SCFGRD= 0.1000000000000000E-13
!THRSW_SCFGRD= 0.1000000000000000E-11
!THRPROD_SCFGRD= 0.1000000000000000E-11
!THRAOPR_SCFGRD= 0.1000000000000000E-11
!LOCFIT_SCF=  0.000000000000000    
!LOCFIT_MP2=  0.000000000000000    
_RIDOM=  0.000000000000000    
!CC2_METHOD=  0.000000000000000    
_BASIS2006=FALSE
_SVDDEL= -1.000000000000000    
_SVDDELA= -1.000000000000000    
_SVDDELP= -1.000000000000000    
_SVDDELF= -1.000000000000000    
_SVDDELS= -1.000000000000000    
_SVDDEL_ABS= -1.000000000000000    
_SVDDELA_ABS= -1.000000000000000    
_SVDDELP_ABS= -1.000000000000000    
_SVDDELF_ABS= -1.000000000000000    
_SVDDELS_ABS= -1.000000000000000    
_MAXBASIS=  0.000000000000000    
!OPT_CONICAL=  0.000000000000000    
!CLEARSP_JGRID=  0.000000000000000    
_GRDHYBR=  0.000000000000000    
_STATEGRAD=  1.000000000000000    
_4EXT_NDISKS=  1.000000000000000    
!EMBEDFLAG=  1.000000000000000    
!EMBED=FALSE
!EMBED_F12=FALSE
!EMBEDNUC=  0.000000000000000    
_EMBEDENERGY=  0.000000000000000    
!EMBED_DFC=FALSE
!NUM_VOIDS=  0.000000000000000    
_IBODY=  0.000000000000000    
_EMBE_CORR=  0.000000000000000    
!EMBED_PROJ=FALSE
!EMB_PROJ_ZMU=  1000000.000000000    
!CORRECTION_HF=  0.000000000000000    
!EMBED_AORB=  0.000000000000000    
!EMBED_NACORR=  0.000000000000000    
!EMBED_MP2=FALSE
!EMBED_TRUNC_PERTURBATION=FALSE
!EMBED_FROZEN=  0.000000000000000    
!EMBED_ACTIVE=  0.000000000000000    
_CHANGE_BASIS=FALSE
_RESTORE_BASIS=FALSE
_FIX_EMBED_GUESS=FALSE
_EMBED_SCF=FALSE
_NEOBAS=FALSE
_NEOOVE=FALSE
_PRINEO=FALSE
_HUZINAGA_T=FALSE
_HUZINAGA_F=FALSE
_HUZINAGA=FALSE
_HUZINAGA_CORRECT=FALSE
!FASTLATGRAD=  1.000000000000000    
!FASTVLAMBDA= -1.000000000000000    
!IFORCE= -1.000000000000000    
!USESYM= -1.000000000000000    
_SINDEX=  0.000000000000000    
_AVDOM_OSV=  0.000000000000000    
_AVDOM_PNO=  0.000000000000000    
_AVDOM_PNOCC=  0.000000000000000    
_AVDOM_TNO=  0.000000000000000    
_AVDOM_TNOIT=  0.000000000000000    
_AVDOM_PAO=  0.000000000000000    
_AVDOM_LMO=  0.000000000000000    
_CC2OSV_FLAG=  0.000000000000000    
_EOMCCSD_CONV=FALSE
_TMADC2_FLAG=FALSE
_PROPADC2_FLAG=FALSE
_LEN_VirQ=  0.000000000000000    
_GRDCC2LR_FLAG=FALSE
_GRDADC2_FLAG=FALSE
_RO_VGLOBAL=  0.000000000000000    
_OPT=FALSE
_FREQ=FALSE
_HESS=FALSE
_CMRCC_callName=EMPTY
_CMRCC_callCount=  0.000000000000000    
_GECCO_CIROOT=  1.000000000000000    
_SYM_CATION=  1.000000000000000    
_MON_A=FALSE
_MON_B=FALSE
_MAXGEOM=  100.0000000000000    
!MAXGEOM=  100.0000000000000    
_NCORE=  0.000000000000000    
_NLARGECORE=  0.000000000000000    
GX1= 0.6249023821870130E-01
GY1=-0.1690958853308230E-02
GZ1= -1.529059930914922    
GX2= 0.2027220500857833E-01
GY2=-0.5881926524013141E-02
GZ2=-0.5849369767695454    
GX3=-0.8325239744543891    
GY3= 0.2519858374060124E-01
GZ3= -1.816365433932384    
GX4=-0.5501102180393314E-01
GY4= 0.1457529388256092E-02
GZ4=  1.447747339708005    
GX5= 0.3663477395039400    
GY5= 0.7448217534583008    
GZ5=  1.843652485520314    
GX6= 0.3272034684111094    
GY6=-0.7604337166210035    
GZ6=  1.848139423081976    
OX1= 0.1180894356959676    
OY1=-0.3195449120763797E-02
OZ1= -2.889504497568404    
HX2= 0.3830891540847986E-01
HY2=-0.1111523021555688E-01
HZ2= -1.105370686261028    
HX3= -1.573242303903736    
HY3= 0.4761842199818433E-01
HZ3= -3.432433212369249    
OX4=-0.1039557650452503    
OY4= 0.2754331362397354E-02
OZ4=  2.735845969703677    
HX5= 0.6922968940381917    
HY5=  1.407509125699726    
HZ5=  3.483998266618973    
HX6= 0.6183249423246364    
HY6= -1.437011460344980    
HZ6=  3.492477349748810    
[Atoms] Angs
O     1    8         0.0624902382       -0.0016909589       -1.5290599309
H     2    1         0.0202722050       -0.0058819265       -0.5849369768
H     3    1        -0.8325239745        0.0251985837       -1.8163654339
O     4    8        -0.0550110218        0.0014575294        1.4477473397
H     5    1         0.3663477395        0.7448217535        1.8436524855
H     6    1         0.3272034684       -0.7604337166        1.8481394231
[GTO]
   1 0
 s    6  1.00
  0.8588500000D+04  0.1895150083D-02
  0.1297230000D+04  0.1438590063D-01
  0.2992960000D+03  0.7073200310D-01
  0.8737710000D+02  0.2400010105D+00
  0.2567890000D+02  0.5947970261D+00
  0.3740040000D+01  0.2808020123D+00
 s    3  1.00
  0.4211750000D+02  0.1138890124D+00
  0.9628370000D+01  0.9208111006D+00
  0.2853320000D+01 -0.3274470358D-02
 s    1  1.00
  0.9056610000D+00  0.1000000000D+01
 s    1  1.00
  0.2556110000D+00  0.1000000000D+01
 p    3  1.00
  0.4211750000D+02  0.3651139738D-01
  0.9628370000D+01  0.2371529830D+00
  0.2853320000D+01  0.8197019412D+00
 p    1  1.00
  0.9056610000D+00  0.1000000000D+01
 p    1  1.00
  0.2556110000D+00  0.1000000000D+01
 d    1  1.00
  0.1292000000D+01  0.1000000000D+01
  
   2 0
 s    3  1.00
  0.3386500000D+02  0.2549381454D-01
  0.5094790000D+01  0.1903731086D+00
  0.1158790000D+01  0.8521614860D+00
 s    1  1.00
  0.3258400000D+00  0.1000000000D+01
 s    1  1.00
  0.1027410000D+00  0.1000000000D+01
 p    1  1.00
  0.7500000000D+00  0.1000000000D+01
  
   3 0
 s    3  1.00
  0.3386500000D+02  0.2549381454D-01
  0.5094790000D+01  0.1903731086D+00
  0.1158790000D+01  0.8521614860D+00
 s    1  1.00
  0.3258400000D+00  0.1000000000D+01
 s    1  1.00
  0.1027410000D+00  0.1000000000D+01
 p    1  1.00
  0.7500000000D+00  0.1000000000D+01
  
   4 0
 s    6  1.00
  0.8588500000D+04  0.1895150083D-02
  0.1297230000D+04  0.1438590063D-01
  0.2992960000D+03  0.7073200310D-01
  0.8737710000D+02  0.2400010105D+00
  0.2567890000D+02  0.5947970261D+00
  0.3740040000D+01  0.2808020123D+00
 s    3  1.00
  0.4211750000D+02  0.1138890124D+00
  0.9628370000D+01  0.9208111006D+00
  0.2853320000D+01 -0.3274470358D-02
 s    1  1.00
  0.9056610000D+00  0.1000000000D+01
 s    1  1.00
  0.2556110000D+00  0.1000000000D+01
 p    3  1.00
  0.4211750000D+02  0.3651139738D-01
  0.9628370000D+01  0.2371529830D+00
  0.2853320000D+01  0.8197019412D+00
 p    1  1.00
  0.9056610000D+00  0.1000000000D+01
 p    1  1.00
  0.2556110000D+00  0.1000000000D+01
 d    1  1.00
  0.1292000000D+01  0.1000000000D+01
  
   5 0
 s    3  1.00
  0.3386500000D+02  0.2549381454D-01
  0.5094790000D+01  0.1903731086D+00
  0.1158790000D+01  0.8521614860D+00
 s    1  1.00
  0.3258400000D+00  0.1000000000D+01
 s    1  1.00
  0.1027410000D+00  0.1000000000D+01
 p    1  1.00
  0.7500000000D+00  0.1000000000D+01
  
   6 0
 s    3  1.00
  0.3386500000D+02  0.2549381454D-01
  0.5094790000D+01  0.1903731086D+00
  0.1158790000D+01  0.8521614860D+00
 s    1  1.00
  0.3258400000D+00  0.1000000000D+01
 s    1  1.00
  0.1027410000D+00  0.1000000000D+01
 p    1  1.00
  0.7500000000D+00  0.1000000000D+01


[MO]
 Sym=      1.1
 Ene=     -20.5725
 Spin= Alpha
 Occup=    2.000000
1 -0.000020030922706
2 -0.000024475393938
3 0.000063427023133
4 -0.000234453626659
5 -0.000006204668866
6 0.000000313268119
7 -0.000010043928885
8 0.000024728859343
9 -0.000001182479030
10 0.000037131046080
11 0.000000633702725
12 0.000000856859881
13 -0.000134719379078
14 -0.000006496445734
15 0.000007099176435
16 -0.000000602730701
17 0.000000454914414
18 -0.000001735765787
19 -0.000000062109839
20 -0.000030617173616
21 0.000157614040070
22 0.000198122600385
23 -0.000003888308534
24 0.000000564442321
25 0.000030834457879
26 0.000003369087663
27 0.000051910901402
28 -0.000076621869284
29 0.000017306083304
30 -0.000000586948657
31 0.000013914587056
32 0.55142844832892
33 0.47167028125620
34 0.005610666907136
35 -0.000540718967533
36 0.001247606289458
37 -0.000029229079388
38 0.001151798669880
39 -0.000433821567043
40 0.000010093783937
41 -0.000445087755293
42 0.000052865151308
43 -0.000000782505913
44 0.000162509385872
45 0.000051812011841
46 -0.000094493174081
47 0.000042681162240
48 -0.000004561520835
49 -0.000072424795508
50 0.000002387880744
51 0.000194852446662
52 0.000123913669636
53 0.000055435086184
54 -0.000004881010386
55 -0.000068827242728
56 -0.000026866895109
57 0.000194794654245
58 0.000124446510641
59 0.000055036937283
60 -0.000001383003146
61 0.000068916230995
62 -0.000027358584038
 Sym=      2.1
 Ene=     -20.5082
 Spin= Alpha
 Occup=    2.000000
1 0.55142512410658
2 0.47167109112947
3 0.005620088652884
4 -0.000574338163768
5 -0.001441340378337
6 0.000035005357653
7 0.000923794776796
8 0.000508097382189
9 -0.000012577279680
10 -0.000289876165471
11 -0.000079079769190
12 0.000002387117036
13 -0.000026307972860
14 -0.000054605732510
15 0.000109096285174
16 -0.000054490552664
17 0.000005615411025
18 -0.000048396714863
19 0.000002499301205
20 0.000196435096142
21 0.000116869528605
22 0.000236689381501
23 -0.000029392573300
24 0.000001297780538
25 -0.000058995183900
26 0.000207664589408
27 0.000111890404089
28 0.000042644742011
29 0.000056670087744
30 -0.000001935470185
31 0.000055550448822
32 0.000020604663581
33 0.000015692327233
34 0.000018031790672
35 -0.000062911179303
36 0.000002573501944
37 -0.000000038471687
38 0.000010596526590
39 -0.000010277953159
40 0.000000210137193
41 -0.000031963803916
42 0.000004505665295
43 0.000000370132236
44 0.000087788316033
45 0.000002794253787
46 -0.000002097380663
47 -0.000000696873124
48 -0.000000108233437
49 0.000000764633804
50 0.000000020636676
51 -0.000003879435676
52 0.000022713226352
53 -0.000035390755915
54 -0.000000589469192
55 -0.000000794779472
56 -0.000011709656084
57 -0.000004015139187
58 0.000023509725923
59 -0.000035990255172
60 -0.000000643884262
61 0.000000830643919
62 -0.000011814391269
 Sym=      3.1
 Ene=      -1.3786
 Spin= Alpha
 Occup=    2.000000
1 -0.006522047731097
2 -0.010840735537625
3 0.030077411092656
4 0.022613851368210
5 -0.001574184319681
6 0.000034225476895
7 0.002459868511333
8 -0.002946747364381
9 0.000071234126878
10 0.003062886973404
11 -0.000903827819419
12 0.000019059119892
13 0.003268244527762
14 0.000152099668846
15 -0.000601895902727
16 0.000449796233882
17 -0.000025161588757
18 0.000033567296720
19 -0.000005276696719
20 0.008543380506275
21 0.006507228564461
22 -0.001460942462367
23 -0.000037143207240
24 0.000007429568705
25 -0.001710386493363
26 0.005215541404188
27 0.003050078853041
28 0.001621299966355
29 0.001185299098446
30 -0.000036537645921
31 0.000422200833293
32 -0.11342293520758
33 -0.18947690906993
34 0.53804565516948
35 0.37615598993059
36 0.026641955102842
37 -0.000620528137750
38 0.025069220187120
39 0.044521628363159
40 -0.001037138609443
41 0.041878511447790
42 0.015137243812573
43 -0.000385288922851
44 0.009467812063646
45 -0.003036066546512
46 0.005662527350996
47 -0.002626460804484
48 0.000278720941872
49 0.006190747412645
50 -0.000189172059364
51 0.095534666705994
52 0.078529705449625
53 -0.002866181593238
54 -0.010841522274394
55 -0.023492647310434
56 -0.009553986637817
57 0.095539750962187
58 0.078515526425167
59 -0.002851922711558
60 -0.009603993126024
61 0.023965022839932
62 -0.009695913301819
 Sym=      4.1
 Ene=      -1.3175
 Spin= Alpha
 Occup=    2.000000
1 -0.11316134119805
2 -0.18896819248384
3 0.53522292732794
4 0.37947031997797
5 -0.031085647421092
6 0.000756037005592
7 0.021187486718066
8 -0.052094796993906
9 0.001274027978835
10 0.034868033101727
11 -0.016114500867622
12 0.000367035158479
13 0.014036405811125
14 0.003782585603575
15 -0.008324399792329
16 0.004541814188754
17 -0.000403286007970
18 0.001603466721134
19 -0.000129785864756
20 0.094052287130535
21 0.075048600359389
22 -0.008495493060435
23 -0.001335572688616
24 0.000180510465646
25 -0.027870885944623
26 0.097083823560664
27 0.081135971093691
28 0.000491475936811
29 0.025150301033575
30 -0.000771149380318
31 0.010844669190216
32 0.007343421082146
33 0.012305146492727
34 -0.035417438852387
35 -0.022595035335660
36 -0.001972649872701
37 0.000042252678859
38 -0.004068401185636
39 -0.003042843928636
40 0.000069104539734
41 -0.004890366256964
42 -0.001054640895115
43 0.000003754913225
44 -0.006007419632220
45 0.000185808326480
46 -0.000354486036139
47 0.000168677709659
48 -0.000018564120230
49 -0.000517977007048
50 0.000013293260876
51 -0.006783004670129
52 -0.006946806286509
53 0.002121905327183
54 0.000777159661268
55 0.001763525533747
56 0.000848029147021
57 -0.006782911820763
58 -0.006975234344499
59 0.002128232038754
60 0.000687740556837
61 -0.001799854303479
62 0.000864133136948
 Sym=      5.1
 Ene=      -0.7471
 Spin= Alpha
 Occup=    2.000000
1 0.000005967638603
2 0.000010550878814
3 -0.000041969024653
4 0.000042991815835
5 0.000062704126079
6 0.001637511829955
7 0.000046304464363
8 0.000077862787624
9 0.002032625526837
10 0.000063889334408
11 0.000092568217961
12 0.003137100120774
13 0.000096056285462
14 -0.000008443402528
15 0.000001589245455
16 0.000006854157072
17 -0.000090812829871
18 0.000000447490521
19 0.000106564337151
20 0.000022562006241
21 -0.000003329353187
22 -0.000059701086380
23 0.000029514951126
24 0.001064387411823
25 0.000005808963828
26 -0.000024987098458
27 -0.000066349177214
28 0.000038726502460
29 -0.000009336501289
30 0.000047980252598
31 -0.000003325170505
32 -0.000003444267467
33 -0.000005901268772
34 0.000018523575181
35 0.000039795161899
36 0.005952910107481
37 0.22877036762496
38 -0.000680267036657
39 0.009147934484094
40 0.35148356110313
41 -0.001041966322075
42 0.005683576320192
43 0.21816743619390
44 -0.000645682370855
45 0.000942893959331
46 -0.000840815572138
47 -0.000102078387193
48 0.020899687584146
49 0.000453438263488
50 0.019804775120583
51 0.15074685402165
52 0.20548265197811
53 0.049004958833331
54 -0.018273087892919
55 -0.018501362396033
56 -0.017859043266013
57 -0.15074280419667
58 -0.20552815127606
59 -0.049007135284743
60 0.017292032147556
61 -0.019317691328588
62 0.017981164244086
 Sym=      6.1
 Ene=      -0.6906
 Spin= Alpha
 Occup=    2.000000
1 0.000595605688418
2 0.001001060744241
3 -0.002724879849123
4 -0.001217032261575
5 0.12128002032430
6 -0.004441635752984
7 0.18393550154372
8 0.18626633372123
9 -0.006816949721800
10 0.28161756764423
11 0.11218383034787
12 -0.004130168789487
13 0.17665589798988
14 -0.022455673451499
15 -0.000041457102778
16 0.022497130554278
17 0.000786409300879
18 -0.010183236752342
19 0.000140029979370
20 0.14721816207197
21 0.19637076621964
22 0.062273568618796
23 0.009744963419405
24 -0.000117714384021
25 -0.030541932264716
26 -0.14529900209895
27 -0.20398107025788
28 -0.057779260561373
29 -0.030375704361917
30 0.000858418444795
31 0.000405795265429
32 -0.004067310915228
33 -0.006951972111394
34 0.021327347627948
35 0.044351525844487
36 -0.014704845931358
37 0.000180021652984
38 -0.054228188067087
39 -0.022024468051423
40 0.000261058825706
41 -0.083339167005749
42 -0.012326985563412
43 0.000066813893546
44 -0.068526493868601
45 0.000451062807818
46 -0.000114101090285
47 -0.000336961717533
48 -0.000031328327184
49 -0.003418409321741
50 0.000083377296451
51 -0.018762149285959
52 -0.029341243291326
53 -0.004983234155763
54 0.001166148637945
55 0.006247965589761
56 -0.002937285781784
57 -0.018707307928542
58 -0.029284756764050
59 -0.004977952722413
60 0.000834889253642
61 -0.006313216504619
62 -0.002900936351506
 Sym=      7.1
 Ene=      -0.6048
 Spin= Alpha
 Occup=    2.000000
1 -0.011237946108586
2 -0.018956470049766
3 0.054357052062501
4 0.10336893247571
5 0.069864594515896
6 -0.002186910779124
7 0.015902434047293
8 0.10291570614653
9 -0.003223848792195
10 0.026454372082736
11 0.087623918722641
12 -0.002796184131397
13 0.014031328870613
14 -0.007126434765836
15 0.002480575297221
16 0.004645859468615
17 0.000320823993759
18 -0.000086577038460
19 -0.000021859085152
20 0.009617889130897
21 0.009205828927101
22 -0.036119382263931
23 0.007653077755786
24 -0.000222068518551
25 -0.004815325050853
26 -0.049509004332176
27 -0.071420120748356
28 -0.015360792183459
29 -0.008373905508446
30 0.000257129718368
31 -0.004967945275697
32 0.034910773200770
33 0.059345292981275
34 -0.17913639331128
35 -0.30448684289406
36 0.17174534545869
37 -0.003954718382217
38 0.17331064420753
39 0.25474676419684
40 -0.005857538813041
41 0.26007399984189
42 0.23144416685969
43 -0.005282406602019
44 0.23172199982021
45 0.002575243894415
46 -0.002919682442464
47 0.000344438548049
48 -0.000118500975066
49 0.015694939040931
50 -0.000399164564023
51 0.083719259926278
52 0.12816694656736
53 0.031384670379824
54 0.005153194765273
55 -0.027209218254941
56 0.006083944768088
57 0.083732409338457
58 0.12826822889519
59 0.031371135688575
60 0.006554090264041
61 0.026946099241928
62 0.005914371388310
 Sym=      8.1
 Ene=      -0.5466
 Spin= Alpha
 Occup=    2.000000
1 -0.032340252332354
2 -0.055021804886567
3 0.16684825987831
4 0.27512482358682
5 0.18061385267324
6 -0.004514988629572
7 -0.11628077806189
8 0.26814372389145
9 -0.006719318675937
10 -0.17047667481270
11 0.23895489175146
12 -0.005927200561162
13 -0.16636825313371
14 -0.009307265097958
15 0.010740514173491
16 -0.001433249075533
17 0.000604944538004
18 0.008885956763872
19 -0.000176094231101
20 -0.069133554884998
21 -0.10322288332403
22 -0.011347361518662
23 0.018637524373800
24 -0.000600351697120
25 0.014833004847672
26 -0.079517976607175
27 -0.13428757233320
28 -0.026860024317996
29 -0.008764885057967
30 0.000377507094327
31 -0.023882894733581
32 -0.009671549979501
33 -0.016514585830098
34 0.051341013914038
35 0.076382862368190
36 -0.13898019708939
37 0.003807449474890
38 0.062521090279798
39 -0.20887631274476
40 0.005722596910696
41 0.093841819364171
42 -0.20872106884805
43 0.005769593684969
44 0.11123706550998
45 -0.007096633105523
46 0.001397561886479
47 0.005699071219044
48 0.000249333681205
49 -0.002968049889801
50 0.000094206120971
51 -0.017291146919291
52 -0.030233045718935
53 -0.007158374677861
54 -0.012141377279648
55 0.006631578029715
56 0.008356427307896
57 -0.017309552101041
58 -0.030219207538804
59 -0.007246760786447
60 -0.012471514910623
61 -0.005942718999599
62 0.008394893691922
 Sym=      9.1
 Ene=      -0.5247
 Spin= Alpha
 Occup=    2.000000
1 0.015212917380761
2 0.025926766982047
3 -0.079956355938632
4 -0.13112073110627
5 -0.089267829641046
6 0.001564401539765
7 0.10246033113040
8 -0.13174563010399
9 0.002309281593176
10 0.15300089486541
11 -0.12531113612597
12 0.002101819781204
13 0.13742808932422
14 0.002378532461723
15 -0.006408080062623
16 0.004029547600900
17 -0.000228521005289
18 -0.006862654186412
19 0.000103448125283
20 0.054141663757148
21 0.094414109153369
22 -0.033185437342995
23 -0.011740939183210
24 0.000360317964522
25 -0.015309265561264
26 0.026994498162133
27 0.044316712757398
28 0.019886680664281
29 0.000589276761182
30 -0.000139377744083
31 0.016105099447949
32 0.003414902785766
33 0.005782096473682
34 -0.015776621451355
35 -0.040931692351530
36 -0.16306253060243
37 0.004806421516993
38 0.19295768052444
39 -0.24478977866534
40 0.007214292387689
41 0.29053143498462
42 -0.26794924437984
43 0.007872323793266
44 0.29825864550698
45 -0.012004018381073
46 -0.000172205694712
47 0.012176224075785
48 0.000361695243764
49 0.001988516212685
50 -0.000013977228867
51 0.007376349292478
52 0.015742170120117
53 0.009789963231604
54 -0.018453225142941
55 -0.003293529276722
56 0.019046279741582
57 0.007397323626830
58 0.015762084193569
59 0.009834866108101
60 -0.018260499174043
61 0.004363669985770
62 0.019026994175155
 Sym=     10.1
 Ene=      -0.4706
 Spin= Alpha
 Occup=    2.000000
1 0.000000731175960
2 0.000002615485749
3 -0.000040215672918
4 0.000226449335807
5 0.008147129921252
6 0.29024929294043
7 0.001768915497320
8 0.012152720004534
9 0.43358818224582
10 0.002632438571001
11 0.013236773122008
12 0.47045795258255
13 0.002961044630706
14 -0.000672764417791
15 0.000568655139169
16 0.000104109278622
17 -0.013747591229555
18 0.000179254492159
19 0.009336743896491
20 0.000036912394725
21 0.000027110951358
22 -0.000598173026668
23 0.000824985703005
24 0.029590856404525
25 0.000173544211507
26 0.000004427013624
27 -0.000026493778621
28 0.000190662916971
29 0.000875390305755
30 0.031362610199062
31 0.000185717685137
32 0.000036545356245
33 0.000063293505156
34 -0.000214920444968
35 -0.000174718548177
36 -0.000265318221990
37 -0.002852260749854
38 0.000401648852172
39 -0.000389898976290
40 -0.004125971463421
41 0.000661848527021
42 -0.000083915162023
43 0.008090309523530
44 0.000413386267731
45 -0.000008559219385
46 -0.000017393885824
47 0.000025953105209
48 0.000354866487311
49 0.000009563124071
50 -0.000007401062979
51 -0.000865943666329
52 -0.017499357929123
53 0.017213536355394
54 0.001452485256045
55 0.000846993508740
56 0.001172289862556
57 0.000982560519957
58 0.017421085457810
59 -0.016732966621074
60 -0.001467121394928
61 0.000934332142699
62 -0.001063117543131
 Sym=     11.1
 Ene=       0.1335
 Spin= Alpha
 Occup=    0.000000
1 0.011626567911815
2 0.019541336809812
3 -0.051800550822836
4 -0.17043777203155
5 0.018662690276541
6 -0.000525795761939
7 -0.021485281879772
8 0.022814621134213
9 -0.000586522100353
10 -0.039257883753582
11 0.054884186421220
12 -0.001782621901285
13 0.004570792152399
14 -0.001135872537243
15 -0.000133301316528
16 0.001269173853771
17 0.000030029612524
18 0.001545160533926
19 -0.000032273269364
20 0.010480364205749
21 -0.058144105804806
22 0.069002435377060
23 0.001638356298867
24 -0.000169381951265
25 0.009286679640838
26 0.012801666403327
27 -0.045360425644973
28 0.33282403244322
29 -0.002177453614898
30 0.000089439450313
31 -0.007165670090855
32 0.034162759461658
33 0.056164972919471
34 -0.11536380782938
35 -0.82003698172369
36 -0.047003093041418
37 0.001176342055392
38 -0.040371277905557
39 -0.074462287867886
40 0.001834953899139
41 -0.061534348303352
42 -0.13535349156609
43 0.003303377425705
44 -0.12720859427251
45 -0.000039814519532
46 -0.000967893263204
47 0.001007707782736
48 -0.000044855190291
49 -0.004598733994787
50 0.000122157966095
51 0.034360748241736
52 -0.049514593715972
53 0.78793725057446
54 -0.002066739838597
55 0.004691184481321
56 -0.000552665536379
57 0.034402223667537
58 -0.050009954190052
59 0.79015001433853