Title Card Required                                                     
Freq      RHF                                                         6-311G              
Number of atoms                            I                6
Info1-9                                    I   N=           9
          20          20        1002           0           0         100
           6           1           2
Full Title                                 C   N=           2
Title Card Required     
Route                                      C   N=           4
# opt freq hf/6-311g geom=connectivity p        
Charge                                     I                0
Multiplicity                               I                1
Number of electrons                        I               20
Number of alpha electrons                  I               10
Number of beta electrons                   I               10
Number of basis functions                  I               38
Number of independent functions            I               38
Number of point charges in /Mol/           I                0
Number of translation vectors              I                0
Atomic numbers                             I   N=           6
           8           1           1           8           1           1
Nuclear charges                            R   N=           6
  8.00000000E+00  1.00000000E+00  1.00000000E+00  8.00000000E+00  1.00000000E+00
  1.00000000E+00
Current cartesian coordinates              R   N=          18
  6.50384629E-02 -2.81411286E+00 -1.47911420E-31 -6.34786459E-02 -1.01939169E+00
 -7.39557099E-32 -1.53266630E+00 -3.60780011E+00 -2.95822839E-31  6.50384629E-02
  2.52086480E+00  2.46519033E-31  1.72991075E+00  3.16797403E+00  2.46519033E-31
 -1.17438121E+00  3.80520224E+00  2.95822839E-31
Number of symbols in /Mol/                 I                0
Force Field                                I                0
Atom Types                                 C   N=           6
                                                            
            
Int Atom Types                             I   N=           6
           0           0           0           0           0           0
MM charges                                 R   N=           6
  0.00000000E+00  0.00000000E+00  0.00000000E+00  0.00000000E+00  0.00000000E+00
  0.00000000E+00
Integer atomic weights                     I   N=           6
          16           1           1          16           1           1
Real atomic weights                        R   N=           6
  1.59949146E+01  1.00782504E+00  1.00782504E+00  1.59949146E+01  1.00782504E+00
  1.00782504E+00
Atom fragment info                         I   N=           6
           0           0           0           0           0           0
Atom residue num                           I   N=           6
           0           0           0           0           0           0
Nuclear spins                              I   N=           6
           0           1           1           0           1           1
Nuclear ZEff                               R   N=           6
 -5.60000000E+00 -1.00000000E+00 -1.00000000E+00 -5.60000000E+00 -1.00000000E+00
 -1.00000000E+00
Nuclear ZNuc                               R   N=           6
  8.00000000E+00  1.00000000E+00  1.00000000E+00  8.00000000E+00  1.00000000E+00
  1.00000000E+00
Nuclear QMom                               R   N=           6
  0.00000000E+00  0.00000000E+00  0.00000000E+00  0.00000000E+00  0.00000000E+00
  0.00000000E+00
Nuclear GFac                               R   N=           6
  0.00000000E+00  2.79284600E+00  2.79284600E+00  0.00000000E+00  2.79284600E+00
  2.79284600E+00
MicOpt                                     I   N=           6
          -1          -1          -1          -1          -1          -1
Number of residues                         I                0
Number of secondary structures             I                0
Redundant internal dimensions              I   N=           4
          12           5           4           3
Redundant internal coordinate indices      I   N=          48
           1           2           0           0           1           3
           0           0           2           6           0           0
           4           5           0           0           4           6
           0           0           2           1           3           0
           1           2           6           0           5           4
           6           0           2           6           4           0
           3           1           2           6           1           2
           6           4           5           4           6           2
Redundant internal coordinates             R   N=          12
  1.79931674E+00  1.78398429E+00  4.95083944E+00  1.78621110E+00  1.78484840E+00
  1.96036794E+00  2.98676538E+00  1.96768509E+00  5.41288416E-01  0.00000000E+00
  3.14159265E+00  3.14159265E+00
ZRed-IntVec                                I   N=          12
           0           0           0           0           0           0
           0           0           0           0           0           0
ZRed-FPVec                                 R   N=          12
  0.00000000E+00  0.00000000E+00  0.00000000E+00  0.00000000E+00  0.00000000E+00
  0.00000000E+00  0.00000000E+00  0.00000000E+00  0.00000000E+00  0.00000000E+00
  0.00000000E+00  0.00000000E+00
ZRed-Constraint1                           R   N=          12
  1.79931674E+00  1.78398429E+00  4.95083944E+00  1.78621110E+00  1.78484840E+00
  1.96036794E+00  2.98676538E+00  1.96768509E+00  5.41288416E-01  0.00000000E+00
  3.14159265E+00  3.14159265E+00
ZRed-Constraint2                           R   N=          12
  1.81413707E+00  1.81413708E+00  4.89957839E+00  1.87431031E+00  1.76603621E+00
  1.91113553E+00  2.83606458E+00  1.49670186E+00  2.07549483E+00  0.00000000E+00
  3.14159265E+00  3.14159265E+00
SymInf integers                            I   N=          26
           1           2           1           1           1           1
           1          -1           0           0           0           0
           0           0           0           0           0           0
           0           0           0           0           0           0
           0           0
RotTr to input orientation                 R   N=          12
 -2.16769557E-01 -9.76222802E-01  5.39827632E-18  9.76222802E-01 -2.16769557E-01
  1.22345643E-16 -1.18266425E-16  3.17907313E-17  1.00000000E+00 -1.93148053E+00
  4.19564583E+00  7.26605969E-18
Number of contracted shells                I               20
Number of primitive shells                 I               42
Pure/Cartesian d shells                    I                0
Pure/Cartesian f shells                    I                0
Highest angular momentum                   I                1
Largest degree of contraction              I                6
Shell types                                I   N=          20
           0          -1          -1          -1           0           0
           0           0           0           0           0          -1
          -1          -1           0           0           0           0
           0           0
Number of primitives per shell             I   N=          20
           6           3           1           1           3           1
           1           3           1           1           6           3
           1           1           3           1           1           3
           1           1
Shell to atom map                          I   N=          20
           1           1           1           1           2           2
           2           3           3           3           4           4
           4           4           5           5           5           6
           6           6
Primitive exponents                        R   N=          42
  8.58850000E+03  1.29723000E+03  2.99296000E+02  8.73771000E+01  2.56789000E+01
  3.74004000E+00  4.21175000E+01  9.62837000E+00  2.85332000E+00  9.05661000E-01
  2.55611000E-01  3.38650000E+01  5.09479000E+00  1.15879000E+00  3.25840000E-01
  1.02741000E-01  3.38650000E+01  5.09479000E+00  1.15879000E+00  3.25840000E-01
  1.02741000E-01  8.58850000E+03  1.29723000E+03  2.99296000E+02  8.73771000E+01
  2.56789000E+01  3.74004000E+00  4.21175000E+01  9.62837000E+00  2.85332000E+00
  9.05661000E-01  2.55611000E-01  3.38650000E+01  5.09479000E+00  1.15879000E+00
  3.25840000E-01  1.02741000E-01  3.38650000E+01  5.09479000E+00  1.15879000E+00
  3.25840000E-01  1.02741000E-01
Contraction coefficients                   R   N=          42
  1.89515008E-03  1.43859006E-02  7.07320031E-02  2.40001011E-01  5.94797026E-01
  2.80802012E-01  1.13889012E-01  9.20811101E-01 -3.27447036E-03  1.00000000E+00
  1.00000000E+00  2.54938145E-02  1.90373109E-01  8.52161486E-01  1.00000000E+00
  1.00000000E+00  2.54938145E-02  1.90373109E-01  8.52161486E-01  1.00000000E+00
  1.00000000E+00  1.89515008E-03  1.43859006E-02  7.07320031E-02  2.40001011E-01
  5.94797026E-01  2.80802012E-01  1.13889012E-01  9.20811101E-01 -3.27447036E-03
  1.00000000E+00  1.00000000E+00  2.54938145E-02  1.90373109E-01  8.52161486E-01
  1.00000000E+00  1.00000000E+00  2.54938145E-02  1.90373109E-01  8.52161486E-01
  1.00000000E+00  1.00000000E+00
P(S=P) Contraction coefficients            R   N=          42
  0.00000000E+00  0.00000000E+00  0.00000000E+00  0.00000000E+00  0.00000000E+00
  0.00000000E+00  3.65113974E-02  2.37152983E-01  8.19701941E-01  1.00000000E+00
  1.00000000E+00  0.00000000E+00  0.00000000E+00  0.00000000E+00  0.00000000E+00
  0.00000000E+00  0.00000000E+00  0.00000000E+00  0.00000000E+00  0.00000000E+00
  0.00000000E+00  0.00000000E+00  0.00000000E+00  0.00000000E+00  0.00000000E+00
  0.00000000E+00  0.00000000E+00  3.65113974E-02  2.37152983E-01  8.19701941E-01
  1.00000000E+00  1.00000000E+00  0.00000000E+00  0.00000000E+00  0.00000000E+00
  0.00000000E+00  0.00000000E+00  0.00000000E+00  0.00000000E+00  0.00000000E+00
  0.00000000E+00  0.00000000E+00
Coordinates of each shell                  R   N=          60
  6.50384629E-02 -2.81411286E+00 -9.86076132E-32  6.50384629E-02 -2.81411286E+00
 -9.86076132E-32  6.50384629E-02 -2.81411286E+00 -9.86076132E-32  6.50384629E-02
 -2.81411286E+00 -9.86076132E-32 -6.34786459E-02 -1.01939169E+00 -4.93038066E-32
 -6.34786459E-02 -1.01939169E+00 -4.93038066E-32 -6.34786459E-02 -1.01939169E+00
 -4.93038066E-32 -1.53266630E+00 -3.60780011E+00 -2.95822839E-31 -1.53266630E+00
 -3.60780011E+00 -2.95822839E-31 -1.53266630E+00 -3.60780011E+00 -2.95822839E-31
  6.50384629E-02  2.52086480E+00  1.97215226E-31  6.50384629E-02  2.52086480E+00
  1.97215226E-31  6.50384629E-02  2.52086480E+00  1.97215226E-31  6.50384629E-02
  2.52086480E+00  1.97215226E-31  1.72991075E+00  3.16797403E+00  1.97215226E-31
  1.72991075E+00  3.16797403E+00  1.97215226E-31  1.72991075E+00  3.16797403E+00
  1.97215226E-31 -1.17438121E+00  3.80520224E+00  2.95822839E-31 -1.17438121E+00
  3.80520224E+00  2.95822839E-31 -1.17438121E+00  3.80520224E+00  2.95822839E-31
Num ILSW                                   I              100
ILSW                                       I   N=         100
           0           0           0           0           2           0
           0           0           0           0           0          -1
           5           0           0           0           2           0
           0           0           1           0           1           0
           1           0           0           0           0           0
           0           0      100000           0          -1           0
           0           0           0           0           0           0
           0           0           0           1           0           0
           0 -2000000000           1           0           0           0
           0           0           4          52           0           0
           0           0           0           0           0           0
           0           0           0           0           0           1
           0           0           0           0           0           0
           0           0           0           0           0           0
           0           0           0           0           0           0
           0           0           0           0           0           0
           0           0           0           0
Num RLSW                                   I               52
RLSW                                       R   N=          52
  1.00000000E+00  1.00000000E+00  1.00000000E+00  1.00000000E+00  1.00000000E+00
  0.00000000E+00  0.00000000E+00  1.00000000E+00  0.00000000E+00  0.00000000E+00
  0.00000000E+00  0.00000000E+00  1.00000000E+00  0.00000000E+00  0.00000000E+00
  0.00000000E+00  0.00000000E+00  1.00000000E+00  0.00000000E+00  0.00000000E+00
  0.00000000E+00  0.00000000E+00  1.00000000E+00  0.00000000E+00  0.00000000E+00
  0.00000000E+00  0.00000000E+00  1.00000000E+00  0.00000000E+00  0.00000000E+00
  0.00000000E+00  0.00000000E+00  1.00000000E+00  0.00000000E+00  0.00000000E+00
  0.00000000E+00  0.00000000E+00  0.00000000E+00  1.00000000E+00  1.00000000E+00
  0.00000000E+00  1.00000000E+00  0.00000000E+00  0.00000000E+00  0.00000000E+00
  0.00000000E+00  0.00000000E+00  0.00000000E+00  0.00000000E+00  0.00000000E+00
  0.00000000E+00  0.00000000E+00
MxBond                                     I                2
NBond                                      I   N=           6
           2           2           1           2           1           2
IBond                                      I   N=          12
           2           3           1           6           1           0
           5           6           4           0           2           4
RBond                                      R   N=          12
  1.00000000E+00  1.00000000E+00  1.00000000E+00  1.00000000E-01  1.00000000E+00
  0.00000000E+00  1.00000000E+00  1.00000000E+00  1.00000000E+00  0.00000000E+00
  1.00000000E-01  1.00000000E+00
Virial Ratio                               R      1.998650979365235E+00
SCF Energy                                 R     -1.520340840595771E+02
Total Energy                               R     -1.520340840595771E+02
RMS Force                                  R      7.713465766012593E-07
RMS Density                                R      5.837192008891656E-10
NImag                                      I                1
Job Status                                 I                1
Nuclear derivative order                   I                2
External E-field                           R   N=          35
  0.00000000E+00  0.00000000E+00  0.00000000E+00  0.00000000E+00  0.00000000E+00
  0.00000000E+00  0.00000000E+00  0.00000000E+00  0.00000000E+00  0.00000000E+00
  0.00000000E+00  0.00000000E+00  0.00000000E+00  0.00000000E+00  0.00000000E+00
  0.00000000E+00  0.00000000E+00  0.00000000E+00  0.00000000E+00  0.00000000E+00
  0.00000000E+00  0.00000000E+00  0.00000000E+00  0.00000000E+00  0.00000000E+00
  0.00000000E+00  0.00000000E+00  0.00000000E+00  0.00000000E+00  0.00000000E+00
  0.00000000E+00  0.00000000E+00  0.00000000E+00  0.00000000E+00  0.00000000E+00
IOpCl                                      I                0
IROHF                                      I                0
Alpha Orbital Energies                     R   N=          38
 -2.05793504E+01 -2.04967771E+01 -1.38997750E+00 -1.31025663E+00 -7.66401951E-01
 -6.96219702E-01 -5.90011170E-01 -5.36502605E-01 -5.04886390E-01 -4.57312358E-01
  1.25081117E-01  1.96025348E-01  1.98694610E-01  3.43030212E-01  5.33363687E-01
  5.57795969E-01  6.28886698E-01  6.46258488E-01  9.57571182E-01  1.04861792E+00
  1.05650356E+00  1.11771880E+00  1.16598411E+00  1.24741174E+00  1.40331106E+00
  1.71578088E+00  2.43936744E+00  2.49246484E+00  2.53175092E+00  2.63195792E+00
  5.27043671E+00  5.36162667E+00  5.44388482E+00  5.51708493E+00  5.55809057E+00
  5.66939504E+00  5.14121973E+01  5.15281537E+01
Alpha MO coefficients                      R   N=        1444
 -1.99643486E-05 -2.54646095E-05 -3.02577076E-06 -3.17877319E-06  0.00000000E+00
  7.92662273E-05  1.12669446E-05  6.36533128E-06  0.00000000E+00 -3.48825115E-04
  7.05493824E-06 -1.86526818E-04  0.00000000E+00 -3.19250770E-05  2.72001743E-04
  3.16157102E-04 -5.09793529E-07  5.73440674E-05 -1.19031069E-04  5.51417771E-01
  4.71657653E-01  4.73189058E-04  2.20387515E-03  0.00000000E+00  5.67316634E-03
 -1.75829539E-04 -8.84142554E-04  0.00000000E+00 -2.99877642E-04  4.52718758E-05
  4.93796723E-04  0.00000000E+00  1.76718114E-04 -3.83425447E-05  2.28235769E-05
  1.88544099E-04 -1.28868339E-04  7.39674607E-05  5.51419941E-01  4.71662873E-01
 -2.07649909E-03  1.05571983E-03  0.00000000E+00  5.63869314E-03  7.62473960E-04
 -3.60422616E-04  0.00000000E+00 -2.97817077E-04 -2.82514011E-04  6.55181902E-05
  0.00000000E+00  1.88206573E-04 -5.54524730E-05  2.30895633E-04  1.94897102E-04
 -9.05274314E-05  6.32188563E-05  2.09234747E-05  1.61171083E-05  3.49023171E-06
  8.89441127E-06  0.00000000E+00  1.55199631E-05 -9.65163663E-06 -2.19494714E-05
  0.00000000E+00 -4.97882797E-05  2.77070933E-05  6.67548981E-05  0.00000000E+00
  2.50174715E-06 -1.04582328E-05 -2.06049904E-05 -8.60235101E-06  3.27573907E-05
 -4.16625133E-05 -6.68769350E-03 -1.11551801E-02 -1.77278211E-03  2.69801683E-03
  0.00000000E+00  3.10599856E-02 -4.11419207E-03  4.06142162E-03  0.00000000E+00
  2.61647684E-02 -2.17166241E-03  3.88683884E-03  0.00000000E+00  9.67112048E-03
  6.95276439E-03 -3.07532720E-03  5.36114494E-03  7.12709611E-04  2.28634069E-03
 -1.13687417E-01 -1.90792872E-01  7.97996141E-03  3.62590532E-02  0.00000000E+00
  5.45082357E-01  1.78457172E-02  8.07940024E-02  0.00000000E+00  4.42297979E-01
  9.92661153E-03  4.21661727E-02  0.00000000E+00  9.83965684E-02  3.71333716E-02
 -4.53436211E-03  9.88164801E-02  3.84366210E-02 -4.40429767E-03 -1.13272842E-01
 -1.89968949E-01 -3.43926192E-02  1.86674997E-02  0.00000000E+00  5.40322568E-01
 -7.62457546E-02  4.10755796E-02  0.00000000E+00  4.50243700E-01 -4.26178239E-02
  2.95825010E-02  0.00000000E+00  9.58918272E-02  2.98162498E-02 -1.49216982E-02
  1.01065192E-01  4.02495765E-02  1.79530931E-03  7.58513698E-03  1.28183255E-02
 -7.84984699E-04 -5.85552990E-03  0.00000000E+00 -3.78509388E-02 -1.34131609E-03
 -1.02404326E-02  0.00000000E+00 -2.55985813E-02 -1.17172289E-03 -1.11134138E-02
  0.00000000E+00 -7.40716953E-03 -5.24258522E-03  4.25419222E-03 -7.86462014E-03
 -4.69758966E-03  2.31661830E-03  7.57294096E-04  1.29765672E-03  6.58901685E-03
  1.14707382E-02  0.00000000E+00 -4.04603784E-03  1.08265736E-02  1.89373001E-02
  0.00000000E+00 -2.02283530E-03  7.88424014E-03  1.28637171E-02  0.00000000E+00
  1.12836236E-02  8.44760032E-03  2.86540736E-03 -1.02210385E-02 -1.01341372E-02
 -3.29561645E-03 -4.68522839E-04 -7.80219000E-04  2.16273732E-01 -5.17616135E-02
  0.00000000E+00  2.11156148E-03  3.61167393E-01 -8.57967274E-02  0.00000000E+00
  5.06346555E-03  2.20069120E-01 -5.46934600E-02  0.00000000E+00  1.58932327E-01
  1.80609228E-01  3.95870191E-02 -1.62378392E-01 -1.85436839E-01 -4.13539605E-02
  8.60423529E-04  1.46180075E-03  9.66336304E-02  1.82761329E-01  0.00000000E+00
 -4.96233919E-03  1.61888916E-01  3.04599073E-01  0.00000000E+00  8.29454485E-03
  9.01964839E-02  1.88246468E-01  0.00000000E+00  1.53512461E-01  1.63433776E-01
  5.06265280E-02 -1.51049840E-01 -1.85763241E-01 -4.77269522E-02 -7.09018481E-03
 -1.19765175E-02 -3.21332774E-02 -7.12756580E-02  0.00000000E+00  3.68902115E-02
 -5.19838924E-02 -1.13334073E-01  0.00000000E+00  4.78733114E-02 -3.88394078E-02
 -1.02471926E-01  0.00000000E+00 -3.94461986E-02 -4.16176069E-02 -9.65270922E-03
 -1.48850380E-02 -1.09655828E-02 -4.41073586E-03 -1.44421459E-02 -2.45116073E-02
  8.16198614E-02  4.69327837E-02  0.00000000E+00  7.33536529E-02  1.26720763E-01
  8.45229834E-02  0.00000000E+00  9.98915272E-02  1.07794776E-01  3.62959267E-02
  0.00000000E+00  2.37783173E-02  5.09458107E-02 -2.88346521E-02 -7.14838207E-02
 -8.88591703E-02 -2.58114089E-02  3.35513985E-02  5.66699195E-02  4.97397483E-02
  2.31806206E-01  0.00000000E+00 -1.70466918E-01  7.51855326E-02  3.50670662E-01
  0.00000000E+00 -2.31929049E-01  8.14757581E-02  3.72107834E-01  0.00000000E+00
  7.66456407E-02  7.02990851E-02  3.78726530E-02  7.80510831E-02  7.90358884E-02
  2.51731727E-02  0.00000000E+00  0.00000000E+00  0.00000000E+00  0.00000000E+00
  1.50902699E-02  0.00000000E+00  0.00000000E+00  0.00000000E+00  2.10690733E-02
  0.00000000E+00  0.00000000E+00  0.00000000E+00  2.92088546E-02  0.00000000E+00
  0.00000000E+00  0.00000000E+00  0.00000000E+00  0.00000000E+00  0.00000000E+00
  0.00000000E+00  0.00000000E+00  0.00000000E+00  0.00000000E+00  2.92003101E-01
  0.00000000E+00  0.00000000E+00  0.00000000E+00  4.40314029E-01  0.00000000E+00
  0.00000000E+00  0.00000000E+00  4.86057040E-01  0.00000000E+00  0.00000000E+00
  0.00000000E+00  0.00000000E+00  0.00000000E+00  0.00000000E+00 -3.45980970E-02
 -5.85577666E-02  2.11527924E-01 -1.40977078E-01  0.00000000E+00  1.79480946E-01
  3.19016795E-01 -2.14477921E-01  0.00000000E+00  2.26231450E-01  3.36791243E-01
 -2.30212664E-01  0.00000000E+00 -8.47089503E-02 -8.49129083E-02  7.47576735E-03
 -7.39364334E-02 -8.24881303E-02 -3.74796531E-02 -1.05849493E-02 -1.80120974E-02
 -1.31508381E-02 -5.90803620E-02  0.00000000E+00  5.57655032E-02 -2.12979961E-02
 -8.95454435E-02  0.00000000E+00  7.02617659E-02 -1.33080926E-02 -9.34790916E-02
  0.00000000E+00 -1.82780751E-02 -2.91800372E-02 -2.59505798E-03 -1.99890069E-02
 -1.03015232E-02 -2.34771666E-02  0.00000000E+00  0.00000000E+00  0.00000000E+00
  0.00000000E+00  2.90385225E-01  0.00000000E+00  0.00000000E+00  0.00000000E+00
  4.35388043E-01  0.00000000E+00  0.00000000E+00  0.00000000E+00  4.93357838E-01
  0.00000000E+00  0.00000000E+00  0.00000000E+00  0.00000000E+00  0.00000000E+00
  0.00000000E+00  0.00000000E+00  0.00000000E+00  0.00000000E+00  0.00000000E+00
 -1.83747939E-02  0.00000000E+00  0.00000000E+00  0.00000000E+00 -3.04004964E-02
  0.00000000E+00  0.00000000E+00  0.00000000E+00 -2.49899651E-02  0.00000000E+00
  0.00000000E+00  0.00000000E+00  0.00000000E+00  0.00000000E+00  0.00000000E+00
  1.06119461E-02  1.80235055E-02  1.80318453E-02 -1.79278968E-02  0.00000000E+00
 -4.89768985E-02  2.60745979E-02 -3.82794777E-02  0.00000000E+00 -1.63141620E-01
  5.76061133E-02  3.91965420E-03  0.00000000E+00  9.71618633E-03 -2.47418764E-02
  9.70113058E-03  1.35092758E-02 -2.10778970E-02  2.99296773E-01  3.55162870E-02
  5.85408424E-02 -7.90394261E-03 -6.39854174E-02  0.00000000E+00 -1.21661332E-01
 -1.58499924E-02 -1.01775512E-01  0.00000000E+00 -8.66639745E-01 -1.89175140E-02
 -2.05687686E-01  0.00000000E+00  3.85981824E-02 -9.81927013E-04  7.20790475E-01
  3.99973976E-02 -1.77302708E-02  8.78924297E-01  2.48731481E-02  4.04441286E-02
  7.39455127E-02  2.47006320E-02  0.00000000E+00 -7.29495201E-02  1.08745256E-01
  1.69184465E-02  0.00000000E+00 -6.66494197E-01  2.37911647E-01  1.29150728E-01
  0.00000000E+00  2.31296773E-02  6.95548513E-03  4.10321325E-02  3.21771582E-02
 -1.04323482E-01  1.29444686E+00 -4.80184157E-03 -7.40218401E-03  5.77847361E-02
  2.71299519E-02  0.00000000E+00  2.14113984E-03  7.28162797E-02  5.17998900E-02
  0.00000000E+00  2.22851757E-01  2.27117477E-01  4.07970453E-02  0.00000000E+00
 -1.64218071E-02  4.13943538E-02 -8.69624915E-01  2.72482996E-03 -4.68552910E-02
  4.12202829E-01 -1.43566694E-02 -2.36547839E-02 -3.07539038E-02 -1.18260885E-02
  0.00000000E+00  4.94675005E-02 -4.29450958E-02 -8.35848539E-03  0.00000000E+00
  3.39244484E-01 -1.23052061E-01 -7.01351667E-02  0.00000000E+00 -1.12716150E-02
  4.97971775E-03  1.58561087E-02 -2.23664751E-02  1.85552838E-02 -6.41031353E-01
  4.05838285E-04  3.69731719E-04  1.04308988E-01 -3.53995466E-02  0.00000000E+00
  6.26494565E-03  1.22778083E-01 -5.00083210E-02  0.00000000E+00 -5.84273139E-02
  4.49861112E-01 -1.20006727E-01  0.00000000E+00 -1.91104848E-02  8.24449742E-02
 -1.31085402E+00  2.07549027E-02 -8.17203169E-02  1.42359640E+00  2.02039774E-02
  3.37670174E-02 -3.09757611E-02 -9.84384864E-02  0.00000000E+00 -8.13098962E-02
 -2.18909929E-02 -1.09351726E-01  0.00000000E+00 -4.66065942E-01 -1.94208135E-01
 -4.15207758E-01  0.00000000E+00  4.30915754E-02 -3.35266685E-01  2.38594539E+00
 -4.34943143E-03  4.70833086E-02 -1.12513907E+00  1.27736698E-02  2.21845376E-02
  1.86222067E-02  8.25427183E-02  0.00000000E+00 -7.54988094E-02  2.76057401E-02
  9.61197092E-02  0.00000000E+00 -1.00567645E-01  5.54208476E-02  3.86768024E-01
  0.00000000E+00 -1.08081275E-02  2.03074019E-02 -4.56459506E-01  5.75749786E-03
  4.51245792E-03 -2.53280496E-01  1.56562132E-02  2.76341947E-02  2.83951225E-02
 -4.07915233E-03  0.00000000E+00 -8.17367754E-02  1.27110524E-02 -2.21952219E-02
  0.00000000E+00 -4.27829771E-01  4.71566549E-01  8.34123387E-02  0.00000000E+00
  2.32122757E-02  3.14396661E-01 -2.07984173E-01  4.41050610E-02  9.04778042E-01
 -2.58651135E-01  6.62563753E-03  1.17751106E-02  1.00398900E-01 -3.56094572E-02
  0.00000000E+00 -3.69083448E-02  1.31420384E-01 -5.57040810E-02  0.00000000E+00
 -1.70948933E-01  1.05972196E+00 -3.82424533E-01  0.00000000E+00 -5.50769971E-02
 -1.06607230E+00  5.26421873E-01  8.10036110E-02  1.60225085E+00 -6.93221392E-01
  2.82310570E-03  5.26405519E-03 -3.78307267E-03 -2.95677471E-02  0.00000000E+00
 -2.29977421E-02  3.80126035E-03 -4.79617062E-02  0.00000000E+00 -1.22523254E-02
 -1.07209392E-01 -1.73600749E-01  0.00000000E+00  2.83242493E-02  2.17428876E-01
  1.44940904E-02 -1.09117257E-02 -2.17199637E-01  5.50364420E-02  3.47749619E-02
  6.09362537E-02 -3.61485285E-02 -6.54944887E-02  0.00000000E+00 -1.66134278E-01
 -4.93204230E-02 -9.18824460E-02  0.00000000E+00 -1.12818021E+00 -3.93476986E-01
 -7.97614527E-01  0.00000000E+00  9.41185826E-02  1.85708576E+00 -7.34976489E-01
  6.94476271E-02  1.34668160E+00 -4.99732937E-01  6.05077404E-03  1.09241454E-02
 -5.70789250E-02 -1.19815459E-01  0.00000000E+00 -3.81406844E-02 -9.41556208E-02
 -1.86730911E-01  0.00000000E+00 -1.12382445E-01 -4.70893415E-01 -1.04979790E+00
  0.00000000E+00  9.21771399E-02  1.66075037E+00 -8.24652712E-01 -5.94813140E-02
 -1.24675321E+00  6.26368360E-01  4.24865196E-03  9.00568881E-03  2.88611912E-02
  5.31449084E-02  0.00000000E+00 -7.46504019E-02  5.82295028E-02  9.72236589E-02
  0.00000000E+00  3.42314631E-01  1.75862787E-01  9.17850107E-02  0.00000000E+00
 -2.90175331E-02 -5.56093174E-01  3.59035129E-01  1.06977997E-02 -8.35721986E-02
 -5.84105011E-02  3.12366186E-02  5.47645917E-02  8.88848406E-02 -3.85725319E-02
  0.00000000E+00 -1.46322298E-01  1.64841048E-01 -6.44898221E-02  0.00000000E+00
 -1.06114104E+00  6.96130745E-01 -2.99310544E-01  0.00000000E+00  7.37237535E-02
  1.31489255E+00 -3.20476923E-01  7.70118593E-02  1.63697842E+00 -7.24598405E-01
  7.03531787E-03  1.37555911E-02 -5.45701391E-02  6.88472195E-02  0.00000000E+00
 -8.44614209E-02 -1.00651090E-01  1.30019899E-01  0.00000000E+00  2.19309069E-01
 -4.45310263E-01  1.85994298E-01  0.00000000E+00  2.85141484E-02  4.88861107E-01
 -3.42604175E-01 -3.70024268E-02 -8.63287236E-01  4.56561199E-01  0.00000000E+00
  0.00000000E+00  0.00000000E+00  0.00000000E+00 -8.92467129E-02  0.00000000E+00
  0.00000000E+00  0.00000000E+00 -3.14037708E-01  0.00000000E+00  0.00000000E+00
  0.00000000E+00  4.01440107E-01  0.00000000E+00  0.00000000E+00  0.00000000E+00
  0.00000000E+00  0.00000000E+00  0.00000000E+00  0.00000000E+00  0.00000000E+00
  0.00000000E+00  0.00000000E+00 -2.22665815E-01  0.00000000E+00  0.00000000E+00
  0.00000000E+00 -7.75785711E-01  0.00000000E+00  0.00000000E+00  0.00000000E+00
  1.04575588E+00  0.00000000E+00  0.00000000E+00  0.00000000E+00  0.00000000E+00
  0.00000000E+00  0.00000000E+00  2.17092185E-02  3.90882628E-02 -1.84182498E-01
  9.00823823E-02  0.00000000E+00 -1.55331080E-01 -6.73151127E-01  3.52091288E-01
  0.00000000E+00 -3.47517066E-01  1.04371030E+00 -6.65235753E-01  0.00000000E+00
  3.91546502E-02  3.45816107E-01  2.76127191E-01  3.94871281E-02  2.10393638E-01
  4.18907043E-03  9.67288974E-04  2.57520524E-03 -9.55094915E-02 -3.47267042E-02
  0.00000000E+00 -2.69804548E-02 -3.48920568E-01 -1.50951985E-01  0.00000000E+00
  1.10739949E-01  5.25178207E-01  3.17722938E-01  0.00000000E+00  3.49880410E-03
  2.70866800E-02 -4.61208740E-01 -1.76902280E-02 -1.24473647E-01  2.76614457E-01
  0.00000000E+00  0.00000000E+00  0.00000000E+00  0.00000000E+00 -2.24399117E-01
  0.00000000E+00  0.00000000E+00  0.00000000E+00 -7.80668475E-01  0.00000000E+00
  0.00000000E+00  0.00000000E+00  1.06146594E+00  0.00000000E+00  0.00000000E+00
  0.00000000E+00  0.00000000E+00  0.00000000E+00  0.00000000E+00  0.00000000E+00
  0.00000000E+00  0.00000000E+00  0.00000000E+00  9.21460215E-02  0.00000000E+00
  0.00000000E+00  0.00000000E+00  3.14084668E-01  0.00000000E+00  0.00000000E+00
  0.00000000E+00 -4.47626686E-01  0.00000000E+00  0.00000000E+00  0.00000000E+00
  0.00000000E+00  0.00000000E+00  0.00000000E+00 -1.16590293E-02 -2.14506523E-02
  3.09586452E-02 -9.88772933E-02  0.00000000E+00  9.24494248E-02  1.12274537E-01
 -3.82352838E-01  0.00000000E+00  1.48481828E-01 -2.12893058E-01  7.06308136E-01
  0.00000000E+00 -3.47593590E-02 -2.26128025E-01 -2.83550459E-01 -2.60521671E-02
 -1.57233932E-01  2.97730592E-01 -4.63357249E-03 -8.48379855E-03 -2.08046917E-01
  1.41149879E-02  0.00000000E+00  3.69900233E-02 -7.98310438E-01  7.91805990E-02
  0.00000000E+00  4.64069336E-02  1.55488716E+00 -2.26999981E-01  0.00000000E+00
 -3.43210611E-02 -2.29698268E-01 -6.21795618E-01  2.67823374E-02  1.69594669E-01
  6.54843908E-01  2.89969843E-02  5.78934721E-02  9.37525624E-02  2.10221777E-02
  0.00000000E+00 -3.36591409E-01  3.53278690E-01  1.74561316E-01  0.00000000E+00
  3.26695748E-02 -6.66418511E-01 -7.60455383E-01  0.00000000E+00  8.81444214E-03
  5.24902356E-01  8.77741947E-01 -3.08556943E-02 -1.40831161E-01 -6.40034806E-01