[Molden Format]
[Molpro variables]
_NUMVAR=  1070.000000000000    
_AVOGAD= 0.6022140760000000E+24
_BOLTZ= 0.1380649000000000E-22
_CLIGHTSI=  299792458.0000000    
_JOULE= 0.4359744722207100E-17
_JPCAL=  4.184000000000000    
_PLANCK= 0.6626070150000000E-33
_BOHR= 0.5291772109030000E-10
_ECHARG= 0.1602176634000000E-18
_ENULL= 0.8854187812800001E-11
_MU= 0.1660539066600000E-26
_EMASS= 0.9109383701500001E-30
_AMU2AU=  1822.888486217313    
_CLIGHT=  29979245800.00000    
_EV= 0.3674932217565494E-01
_KJOULE= 0.3808798847133432E-03
_KJOULE/MOL= 0.3808798847133432E-03
_CM= 0.4556335252912009E-05
_CM-1= 0.4556335252912009E-05
_DEB2SI= 0.3335640951981520E-29
_KCAL= 0.1593601437640628E-02
_KCAL/MOL= 0.1593601437640628E-02
_KELVIN= 0.3166811563455608E-05
_HERTZ= 0.1519829846057038E-15
_HZ= 0.1519829846057038E-15
_TOA= 0.5291772109030000    
_TOANG= 0.5291772109030000    
_TORAD= 0.1745329251994330E-01
_TOCM=  219474.6313631965    
_TODEBYE=  2.541746473194078    
_TOE= 0.4803204712570263E-09
_TOEV=  27.21138624598803    
_TOHERTZ=  6579683920501656.    
_TOHZ=  6579683920501656.    
_TOK=  315775.0248040668    
_TOKCAL=  627.5094740630558    
_TOKELVIN=  315775.0248040668    
_TOKJ=  2625.499639479825    
_TOKJOULE=  2625.499639479825    
_TOKG= 0.1660539066600000E-26
_ANG=  1.889726124625770    
_ANGSTROM=  1.889726124625770    
_RPAREF=  0.000000000000000    
_RPADISS=  0.000000000000000    
_IGNORE_UNDEF=  2.000000000000000    
_STRICTCHECK=  0.000000000000000    
!SEWARD=  0.000000000000000    
!MULTI=  0.000000000000000    
!DFMULTI=  0.000000000000000    
!NUMHESS=  0.000000000000000    
_SEW_ONEEL=  0.000000000000000    
_CPPDONE=FALSE
_DKROLL_DONE=  0.000000000000000    
_FNUC_DONE=  0.000000000000000    
_FOCKDONE=TRUE
_GRADONE=FALSE
_HESSDONE=TRUE
_INTDONE=TRUE
_SCFDONE=TRUE
_MODUL_BLOCK=FALSE
_MODUL_SLATER=TRUE
_MODUL_MRCC=FALSE
_MODUL_NBO6=FALSE
_MODUL_NECI=FALSE
_MODUL_AIMS=TRUE
_MODUL_HDF5=FALSE
_MODUL_GECCO=FALSE
_ISWINDOWS=FALSE
_MRCC_EXEC=
_FITC_AO_SAVED=FALSE
_FITC_MO_SAVED=FALSE
_LSTYP=SEWARD
_INTYP=INTS
_GEOMTYP=XYZ
_GRADTYP=ALASKA
_DIRECT=FALSE
_DKHO= -1.000000000000000    
_FNUC=  0.000000000000000    
_SYNCM=  0.000000000000000    
_BASIS=6-311G(D,P)
_ZCENTRE=MASS
_ZORIENT=  1.000000000000000    
_NELEC=  20.00000000000000    
!SPIN=  0.000000000000000    
_OPTCONV= 0.3443507629432672E-02
_QSDSTEP=  0.000000000000000    
_QSDIRC=  0.000000000000000    
_PROGRAM=FREQ
_CPUSTEP= 0.8700000000000001    
_SYSSTEP= 0.5000000000000004E-01
_WALLSTEP= 0.9100000000000000    
!DFSCF=  0.000000000000000    
!SCSGRD=  0.000000000000000    
_NCEN=  5.000000000000000    
_CPUTOT=  5.790000000000000    
_DFTEXFAC=  1.000000000000000    
_DMX=-0.5629324340161465E-02
_DMY=-0.4242303004240738    
_DMZ= -1.724686669907412    
_DMX_SCF=-0.5629324340161465E-02
_DMY_SCF=-0.4242303004240738    
_DMZ_SCF= -1.724686669907412    
_FREQUENCIES= 0.4780346429654859E-04
_HOMO=  10.10000000000000    
_EHOMO=-0.5488013873178271    
_LUMO=  11.10000000000000    
_ELUMO= 0.1255552633150333    
_ENERGY= -176.1089350079802    
_ENERGY_METHOD=HF
_ENERGY_BASIS=6-311G(D,P)
_GEOMETRY_METHOD=HF
_GEOMETRY_BASIS=6-311G(D,P)
_ENUC=  34.41023889386845    
_GRADENERG= -176.1089343594318    
_GRADEXFAC=  9999.000000000000    
_GRADMETHOD=  1.000000000000000    
_NMRMETHOD=  0.000000000000000    
_NMRMAGNET=  0.000000000000000    
_VIRIAL= 0.1311104071834765E-03
!GRID_FREEZE= -1.000000000000000    
!NEESE_INDEX=  0.000000000000000    
_ITERATIONS=  11.00000000000000    
_LASTNELEC=  20.00000000000000    
_LASTSPIN=  0.000000000000000    
_LASTSYM=  1.000000000000000    
_MPP_PROG=  1.000000000000000    
_MSNSTATES=  0.000000000000000    
_RS2PHASE=  0.000000000000000    
_NPROC_MPP=  6.000000000000000    
_NPROC_SMP=  6.000000000000000    
_NUMSTEP=  0.000000000000000    
_OPTCONVMX= 0.2218382412212455E-02
_OPTCONVRMS= 0.1147835876477557E-02
_OPTGRAD= 0.2515985849928748E-03
_OPTGRADMX= 0.1279793025678817E-03
_OPTGRADRMS= 0.8386619499762494E-04
!GMAXLAST= 0.1279793025678817E-03
!DMAXLAST= 0.2218382412212455E-02
!DELAST= 0.6023710739100352E-06
_OPTSTEP=  9.000000000000000    
_ORBITAL=  2100.200000000000    
_PI=  3.141592653589793    
_SEIG_MIN= 0.1692851834057229E-01
_SEWPROP=TRUE
_STATUS=  1.000000000000000    
_SYSTOT= 0.9600000000000000    
_VERSION=  2024001.000000000    
_WALLTOT=  6.750000000000000    
_ZPE= 0.3754671678557647E-01
_DATE=15-Oct-24
_LASTORB=0
_OUTPUT=/home/lme/Theoretische_Chemie/Paper/Calc_Paper/h2o_hf/water_hf.out
_PGROUP=C1
_TIME=15:10:52
_LIBMOL=/usr/local/molpro/molpro_2024.1.0_sockets/lib/
_VIGRDC=  0.000000000000000    
!VIBCNT=  0.000000000000000    
!SURFREC=  0.000000000000000    
!XSURFREC=  0.000000000000000    
!XPOLYREC=  0.000000000000000    
!ROTREC=  0.000000000000000    
!POLYREC=  0.000000000000000    
!DIPREC=  0.000000000000000    
!DIP4DREC=  0.000000000000000    
!DIPROT=  0.000000000000000    
!DIP4DROT=  0.000000000000000    
!PTREC=  0.000000000000000    
!PT4DREC=  0.000000000000000    
!VSCFREC=  0.000000000000000    
!VCIREC=  0.000000000000000    
!PVCIREC=  0.000000000000000    
!VMP2REC=  0.000000000000000    
!VMCSCFREC=  0.000000000000000    
!VMRCIREC=  0.000000000000000    
!VIBSTATEREC=  0.000000000000000    
!VIBSTATECNT=  0.000000000000000    
!VIBINFO=  0.000000000000000    
!GAREC=  0.000000000000000    
!SCFORB=  21002.00000000000    
!DEFCORE=  2.000000000000000    
!SCORE=  0.000000000000000    
!NEWMOL=  0.000000000000000    
!NEWSYM=  0.000000000000000    
_SLFILES=slscratch
_NGSSTO=  9.000000000000000    
_SIN=SIN
_COS=COS
_TAN=TAN
_ACOS=ACOS
_ASIN=ASIN
_ATAN=ATAN
_COSH=COSH
_SINH=SINH
_TANH=TANH
_ABS=ABS
_MOD=MOD
_ERF=ERF
_REFC=REFC
_ERFC=ERFC
_HYPOT=HYPOT
_J0=J0
_J1=J1
_JN=JN
_GAMMA=GAMMA
_LGAMMA=LGAMMA
_Y0=Y0
_Y1=Y1
_YN=YN
_EXP=EXP
_LOG=LOG
_LOG10=LOG10
_SQRT=SQRT
_INT=INT
_NINT=NINT
_MAX=MAX
_MIN=MIN
_COSMO=  0.000000000000000    
_COSMOIT=  0.000000000000000    
_COSMOES=  0.000000000000000    
_COSMOEDS=  0.000000000000000    
_COSMOEC=  0.000000000000000    
_COSMOEDCORR=  0.000000000000000    
_FEPSI=  1.000000000000000    
_SL_IsMM=  0.000000000000000    
_SL_NSYM=  1.000000000000000    
_SL_System_BitSw=  0.000000000000000    
_SL_Unique_atoms=  0.000000000000000    
_SL_GRAD=  0.000000000000000    
_SL_MAXUPD_Hess=  5.000000000000000    
_SL_N_PRINT_COD=  5.000000000000000    
_SL_PRINT_CODES=  0.000000000000000    
_SL_BasType=  0.000000000000000    
_SL_Energy_Pred=  0.000000000000000    
_SL_New_Coords=  0.000000000000000    
_SL_Total_Nuclea=  0.000000000000000    
_SL_Highest_Mltp=  0.000000000000000    
_SL_Ref_Geom=  0.000000000000000    
_SL_Symmetry_ope=  1.000000000000000    
_SL_agrad=  0.000000000000000    
_SL_GrdMax=  0.000000000000000    
_SL_GrdNorm=  0.000000000000000    
_SL_GrdRMS=  0.000000000000000    
_SL_Hss_Q=  0.000000000000000    
_SL_Hss_X=  0.000000000000000    
_SL_BMxOld=  0.000000000000000    
_SL_KtB=  0.000000000000000    
_SL_TROld=  0.000000000000000    
_SL_No_of_Intern=  0.000000000000000    
_SL_Hess=  0.000000000000000    
_SL_K=  0.000000000000000    
!LATTICE= -1.000000000000000    
!NEWLATTICE=  0.000000000000000    
!LATGRAD_VAR=FALSE
!SEW_LATTICE=  1.000000000000000    
!AIC_ONEEL=  0.000000000000000    
!LOCAL=  0.000000000000000    
!SAVEDOM= -1.000000000000000    
!RESTDOM= -1.000000000000000    
!SAVEDOM_HF= -1.000000000000000    
!RESTDOM_HF= -1.000000000000000    
!HESSREC=  5300.200000000000    
!FREQREC=  5400.200000000000    
!NMODREC=  5450.200000000000    
!GTASKS=  0.000000000000000    
!HTASKS=  0.000000000000000    
!SAVEDOM_EOM= -1.000000000000000    
!RESTDOM_EOM= -1.000000000000000    
!GRADSTATE= -1.000000000000000    
!DEBUG=  0.000000000000000    
!CFIT_CPHF=  0.000000000000000    
!RDOMAUX_CPHF=  0.000000000000000    
!THRAO_CPHF= 0.1000000000000000E-11
!THRMO_CPHF= 0.1000000000000000E-11
!THROV_CPHF= 0.1000000000000000E-13
!THRSW_CPHF= 0.1000000000000000E-11
!THRPROD_CPHF= 0.1000000000000000E-11
!THRAOPR_CPHF= 0.1000000000000000E-11
!CFIT_SCFGRD=  0.000000000000000    
!RDOMAUX_SCFGRD=  0.000000000000000    
!THRAO_SCFGRD= 0.1000000000000000E-11
!THRMO_SCFGRD= 0.1000000000000000E-11
!THROV_SCFGRD= 0.1000000000000000E-13
!THRSW_SCFGRD= 0.1000000000000000E-11
!THRPROD_SCFGRD= 0.1000000000000000E-11
!THRAOPR_SCFGRD= 0.1000000000000000E-11
!LOCFIT_SCF=  0.000000000000000    
!LOCFIT_MP2=  0.000000000000000    
_RIDOM=  0.000000000000000    
!CC2_METHOD=  0.000000000000000    
_BASIS2006=FALSE
_SVDDEL= -1.000000000000000    
_SVDDELA= -1.000000000000000    
_SVDDELP= -1.000000000000000    
_SVDDELF= -1.000000000000000    
_SVDDELS= -1.000000000000000    
_SVDDEL_ABS= -1.000000000000000    
_SVDDELA_ABS= -1.000000000000000    
_SVDDELP_ABS= -1.000000000000000    
_SVDDELF_ABS= -1.000000000000000    
_SVDDELS_ABS= -1.000000000000000    
_MAXBASIS=  0.000000000000000    
!OPT_CONICAL=  0.000000000000000    
!CLEARSP_JGRID=  0.000000000000000    
_GRDHYBR=  0.000000000000000    
_STATEGRAD=  1.000000000000000    
_4EXT_NDISKS=  1.000000000000000    
!EMBEDFLAG=  1.000000000000000    
!EMBED=FALSE
!EMBED_F12=FALSE
!EMBEDNUC=  0.000000000000000    
_EMBEDENERGY=  0.000000000000000    
!EMBED_DFC=FALSE
!NUM_VOIDS=  0.000000000000000    
_IBODY=  0.000000000000000    
_EMBE_CORR=  0.000000000000000    
!EMBED_PROJ=FALSE
!EMB_PROJ_ZMU=  1000000.000000000    
!CORRECTION_HF=  0.000000000000000    
!EMBED_AORB=  0.000000000000000    
!EMBED_NACORR=  0.000000000000000    
!EMBED_MP2=FALSE
!EMBED_TRUNC_PERTURBATION=FALSE
!EMBED_FROZEN=  0.000000000000000    
!EMBED_ACTIVE=  0.000000000000000    
_CHANGE_BASIS=FALSE
_RESTORE_BASIS=FALSE
_FIX_EMBED_GUESS=FALSE
_EMBED_SCF=FALSE
_NEOBAS=FALSE
_NEOOVE=FALSE
_PRINEO=FALSE
_HUZINAGA_T=FALSE
_HUZINAGA_F=FALSE
_HUZINAGA=FALSE
_HUZINAGA_CORRECT=FALSE
!FASTLATGRAD=  1.000000000000000    
!FASTVLAMBDA= -1.000000000000000    
!IFORCE= -1.000000000000000    
!USESYM= -1.000000000000000    
_SINDEX=  0.000000000000000    
_AVDOM_OSV=  0.000000000000000    
_AVDOM_PNO=  0.000000000000000    
_AVDOM_PNOCC=  0.000000000000000    
_AVDOM_TNO=  0.000000000000000    
_AVDOM_TNOIT=  0.000000000000000    
_AVDOM_PAO=  0.000000000000000    
_AVDOM_LMO=  0.000000000000000    
_CC2OSV_FLAG=  0.000000000000000    
_EOMCCSD_CONV=FALSE
_TMADC2_FLAG=FALSE
_PROPADC2_FLAG=FALSE
_LEN_VirQ=  0.000000000000000    
_GRDCC2LR_FLAG=FALSE
_GRDADC2_FLAG=FALSE
_RO_VGLOBAL=  0.000000000000000    
_OPT=FALSE
_FREQ=FALSE
_HESS=FALSE
_CMRCC_callName=EMPTY
_CMRCC_callCount=  0.000000000000000    
_GECCO_CIROOT=  1.000000000000000    
_SYM_CATION=  1.000000000000000    
_MON_A=FALSE
_MON_B=FALSE
_MAXGEOM=  100.0000000000000    
!MAXGEOM=  100.0000000000000    
_NCORE=  0.000000000000000    
_NLARGECORE=  0.000000000000000    
GX1=-0.2334839175632667E-03
GY1=-0.7002670400946223E-02
GZ1=  1.328037996012083    
GX2= 0.1418926751815881E-01
GY2= 0.5656533272783994E-01
GZ2= 0.4235478235818361    
GX3= 0.7536886621766289E-03
GY3= 0.3924253451579871E-01
GZ3= -1.372493510115329    
GX4= 0.7456000828513378    
GY4=-0.2784785166498137    
GZ4= -1.853571382028517    
GX5=-0.7673495532421198    
GY5=-0.2688875745497424    
GZ5= -1.822214571741788    
FX1=-0.4412206586992748E-03
FY1=-0.1323312919881169E-01
FZ1=  2.509628095559688    
HX2= 0.2681382951836857E-01
HY2= 0.1068929870039482    
HZ2= 0.8003893872509825    
OX3= 0.1424265154749422E-02
OY3= 0.7415764267103332E-01
OZ3= -2.593636841944260    
HX4=  1.408979955087312    
HY4=-0.5262481280601854    
HZ4= -3.502742264477982    
HX5= -1.450080497481547    
HY5=-0.5081238742139076    
HZ5= -3.443486480894216    
[Atoms] Angs
F     1    9        -0.0002334839       -0.0070026704        1.3280379960
H     2    1         0.0141892675        0.0565653327        0.4235478236
O     3    8         0.0007536887        0.0392425345       -1.3724935101
H     4    1         0.7456000829       -0.2784785166       -1.8535713820
H     5    1        -0.7673495532       -0.2688875745       -1.8222145717
[GTO]
   1 0
 s    6  1.00
  0.1142710000D+05  0.1800930156D-02
  0.1722350000D+04  0.1374190119D-01
  0.3957460000D+03  0.6813340591D-01
  0.1151390000D+03  0.2333250202D+00
  0.3360260000D+02  0.5890860511D+00
  0.4919010000D+01  0.2995050260D+00
 s    3  1.00
  0.5544410000D+02  0.1145360155D+00
  0.1263230000D+02  0.9205121249D+00
  0.3717560000D+01 -0.3378040458D-02
 s    1  1.00
  0.1165450000D+01  0.1000000000D+01
 s    1  1.00
  0.3218920000D+00  0.1000000000D+01
 p    3  1.00
  0.5544410000D+02  0.3546088738D-01
  0.1263230000D+02  0.2374509155D+00
  0.3717560000D+01  0.8204577080D+00
 p    1  1.00
  0.1165450000D+01  0.1000000000D+01
 p    1  1.00
  0.3218920000D+00  0.1000000000D+01
 d    1  1.00
  0.1750000000D+01  0.1000000000D+01
  
   2 0
 s    3  1.00
  0.3386500000D+02  0.2549381454D-01
  0.5094790000D+01  0.1903731086D+00
  0.1158790000D+01  0.8521614860D+00
 s    1  1.00
  0.3258400000D+00  0.1000000000D+01
 s    1  1.00
  0.1027410000D+00  0.1000000000D+01
 p    1  1.00
  0.7500000000D+00  0.1000000000D+01
  
   3 0
 s    6  1.00
  0.8588500000D+04  0.1895150083D-02
  0.1297230000D+04  0.1438590063D-01
  0.2992960000D+03  0.7073200310D-01
  0.8737710000D+02  0.2400010105D+00
  0.2567890000D+02  0.5947970261D+00
  0.3740040000D+01  0.2808020123D+00
 s    3  1.00
  0.4211750000D+02  0.1138890124D+00
  0.9628370000D+01  0.9208111006D+00
  0.2853320000D+01 -0.3274470358D-02
 s    1  1.00
  0.9056610000D+00  0.1000000000D+01
 s    1  1.00
  0.2556110000D+00  0.1000000000D+01
 p    3  1.00
  0.4211750000D+02  0.3651139738D-01
  0.9628370000D+01  0.2371529830D+00
  0.2853320000D+01  0.8197019412D+00
 p    1  1.00
  0.9056610000D+00  0.1000000000D+01
 p    1  1.00
  0.2556110000D+00  0.1000000000D+01
 d    1  1.00
  0.1292000000D+01  0.1000000000D+01
  
   4 0
 s    3  1.00
  0.3386500000D+02  0.2549381454D-01
  0.5094790000D+01  0.1903731086D+00
  0.1158790000D+01  0.8521614860D+00
 s    1  1.00
  0.3258400000D+00  0.1000000000D+01
 s    1  1.00
  0.1027410000D+00  0.1000000000D+01
 p    1  1.00
  0.7500000000D+00  0.1000000000D+01
  
   5 0
 s    3  1.00
  0.3386500000D+02  0.2549381454D-01
  0.5094790000D+01  0.1903731086D+00
  0.1158790000D+01  0.8521614860D+00
 s    1  1.00
  0.3258400000D+00  0.1000000000D+01
 s    1  1.00
  0.1027410000D+00  0.1000000000D+01
 p    1  1.00
  0.7500000000D+00  0.1000000000D+01


[MO]
 Sym=      1.1
 Ene=     -26.2228
 Spin= Alpha
 Occup=    2.000000
1 0.54763789902848
2 0.47350014252222
3 0.006175328148679
4 -0.000506974961091
5 0.000018034475588
6 0.000075007263364
7 -0.001093280885329
8 -0.000005279754459
9 -0.000021854498468
10 0.000330122778667
11 -0.000000035350366
12 -0.000000919559925
13 -0.000003976946253
14 0.000041224092742
15 0.000041522464578
16 -0.000082746557320
17 -0.000000171704274
18 0.000002314118424
19 0.000010246780598
20 0.000135021493908
21 0.000108456817651
22 0.000251659645759
23 -0.000001548491092
24 -0.000006330139891
25 0.000042461773620
26 0.000000180412138
27 -0.000002816083425
28 0.000024747406562
29 -0.000087475967039
30 -0.000000233560604
31 -0.000002280446654
32 -0.000013411440032
33 0.000000662563930
34 0.000009488833685
35 0.000041896558024
36 -0.000001653226489
37 -0.000005673117044
38 -0.000115287912376
39 -0.000003298338290
40 0.000004023619933
41 -0.000000725281643
42 0.000000094760204
43 0.000000195192075
44 0.000000312740152
45 -0.000005366099066
46 0.000025179300130
47 -0.000043741832799
48 0.000000094374345
49 0.000000041788791
50 0.000015880062741
51 -0.000004994655830
52 0.000024552533178
53 -0.000043745956411
54 0.000000374850239
55 0.000000035649502
56 0.000015537593337
 Sym=      2.1
 Ene=     -20.5911
 Spin= Alpha
 Occup=    2.000000
1 0.000000060718128
2 -0.000006976201105
3 0.000065821838380
4 -0.000189063334680
5 -0.000000298122170
6 -0.000000716183407
7 0.000005976972769
8 0.000000999184144
9 0.000002738810254
10 -0.000016692743494
11 -0.000001625701620
12 -0.000005622415488
13 0.000084189136887
14 0.000000744162633
15 0.000000834167255
16 -0.000001578329887
17 0.000000038226246
18 -0.000000308371900
19 -0.000000875179123
20 -0.000017881641041
21 0.000177523500453
22 0.000122571177005
23 -0.000001326803951
24 -0.000002297483706
25 -0.000044591851234
26 0.55142275847752
27 0.47166386531984
28 0.005649359127122
29 -0.000493315984606
30 -0.000032741735001
31 -0.000979313038219
32 -0.001281149814749
33 0.000012006599387
34 0.000336632293421
35 0.000487565222145
36 -0.000000998500063
37 -0.000067628870327
38 -0.000216473700619
39 -0.000087523337291
40 0.000072502956862
41 0.000015020380429
42 -0.000000330711175
43 0.000001689570930
44 -0.000058932516544
45 0.000191759397288
46 0.000064679726422
47 0.000066242990057
48 -0.000045424053290
49 -0.000003719983208
50 0.000027059786917
51 0.000191430666945
52 0.000070613272686
53 0.000064635480141
54 0.000047201544323
55 -0.000003422517439
56 0.000026210050752
 Sym=      3.1
 Ene=      -1.5462
 Spin= Alpha
 Occup=    2.000000
1 -0.12095812186559
2 -0.20296822746753
3 0.59742127750512
4 0.43908393229406
5 0.000459223228456
6 0.001940746192432
7 -0.029324605179298
8 0.000766661500620
9 0.003259970801154
10 -0.049705758464711
11 0.000310410992239
12 0.001093528683544
13 -0.019851811705478
14 -0.003831514209265
15 -0.003816028544243
16 0.007647542753508
17 0.000014580644341
18 -0.000207780817172
19 -0.000908672609991
20 0.093236695592480
21 0.055943874598926
22 -0.012046828939502
23 -0.000451509985635
24 -0.002132611183650
25 0.031936433959950
26 -0.004299000134867
27 -0.007048783272837
28 0.018369619360845
29 0.018824973005975
30 -0.000000881013821
31 -0.000529767775062
32 0.001722038088430
33 -0.000075310279625
34 -0.001451473812241
35 -0.000980458318404
36 0.000063372484718
37 -0.000029939130512
38 0.009953952883548
39 0.000265380812378
40 -0.000364212131227
41 0.000098831318849
42 0.000002480260777
43 -0.000011521894521
44 0.000057930686220
45 0.003003311750354
46 0.001266658950225
47 0.002297040396972
48 -0.000784963885857
49 0.000272797091541
50 -0.000638829954540
51 0.003025620281546
52 0.001175047404342
53 0.002370182636435
54 0.000756728516052
55 0.000248088848686
56 -0.000676391444347
 Sym=      4.1
 Ene=      -1.3968
 Spin= Alpha
 Occup=    2.000000
1 0.006018157857656
2 0.010144851887357
3 -0.030557331162667
4 -0.021409568342665
5 -0.000010574309800
6 -0.000044314217206
7 -0.000880559096594
8 -0.000017309592101
9 -0.000041758083823
10 -0.001365750913981
11 -0.000005281812331
12 -0.000031229037722
13 -0.002053437575522
14 -0.000081186196986
15 -0.000082123747855
16 0.000163309944841
17 -0.000000120287020
18 0.000002275855814
19 0.000000604910032
20 0.000976762404149
21 0.000942944306671
22 -0.000853676406169
23 0.000032597973068
24 0.000066505359783
25 -0.002863324115430
26 -0.11379783644577
27 -0.19012497849917
28 0.53985043226560
29 0.37800318058068
30 -0.000745680459715
31 -0.020846491973624
32 -0.028754643904056
33 -0.001241022422867
34 -0.034831611671242
35 -0.047059965171503
36 -0.000380925050043
37 -0.011887645597361
38 -0.008805662719458
39 0.005637359829439
40 -0.005433764251211
41 -0.000203595578228
42 0.000040526378595
43 -0.000116464963523
44 0.005579773964805
45 0.095074463063397
46 0.078845451983835
47 -0.003586851300634
48 -0.023891500020987
49 0.008225688334429
50 0.011795976257520
51 0.095084149660503
52 0.078712627273453
53 -0.003605996810425
54 0.024451198663262
55 0.007902516476790
56 0.010773455210514
 Sym=      5.1
 Ene=      -0.7668
 Spin= Alpha
 Occup=    2.000000
1 -0.000361956128923
2 -0.000614882253586
3 0.001901249861348
4 0.002649923879189
5 0.004477979112633
6 -0.000160466904218
7 0.002520251280473
8 0.006319155143310
9 -0.000239720008939
10 0.003757895832097
11 0.006773698934058
12 -0.000179327862040
13 0.002812314342242
14 0.000095838518092
15 0.000092062003041
16 -0.000187900521133
17 0.000007754881268
18 -0.000267643253091
19 0.000021944526230
20 -0.001729165238674
21 -0.002220750524899
22 -0.000051592677431
23 0.001712480666271
24 0.000034036149845
25 -0.000340041354975
26 0.000042569322972
27 0.000070623471094
28 -0.000174348501902
29 -0.000735865503670
30 0.22946784069686
31 -0.001618276874924
32 -0.005552832360089
33 0.35313045237060
34 -0.002475242361693
35 -0.008497168928212
36 0.22230774103415
37 -0.001556005849307
38 -0.005770760884573
39 -0.001004592947852
40 0.000178740700540
41 0.000825852247312
42 -0.016572480681886
43 -0.022780343568604
44 0.000528725475172
45 0.15083455392895
46 0.20113350713266
47 0.045738606078235
48 -0.018577961658840
49 0.013577375247630
50 0.021128406071052
51 -0.15023450260720
52 -0.20024970418610
53 -0.045679467403593
54 -0.019437049366322
55 -0.013309099825016
56 -0.020353195264243
 Sym=      6.1
 Ene=      -0.7300
 Spin= Alpha
 Occup=    2.000000
1 -0.028541831963948
2 -0.048406630456150
3 0.14787492341006
4 0.24044690815639
5 -0.003678659343397
6 -0.016401767107964
7 0.24090815661553
8 -0.005467483689390
9 -0.024438740585870
10 0.35882708311777
11 -0.004006592520676
12 -0.017958562021936
13 0.26406580903918
14 0.008358088524076
15 0.008255156208402
16 -0.016613244732478
17 -0.000030580030913
18 0.000450259254870
19 0.001967632915096
20 -0.16020645313925
21 -0.22004164858571
22 -0.010813969362409
23 0.000640651586349
24 0.003190661712352
25 -0.042454303528907
26 0.006221772065963
27 0.010477752068791
28 -0.030027551072797
29 -0.074234198998670
30 -0.004320700687579
31 -0.019638681965738
32 -0.082438964659265
33 -0.006547943792226
34 -0.028673709388410
35 -0.12183805959050
36 -0.004817090805143
37 -0.019721709913529
38 -0.11529027961990
39 0.000195942403865
40 -0.001334135686206
41 0.001138193282341
42 0.000262043075557
43 0.000353313383484
44 0.004260923674582
45 0.027813083688232
46 0.042103723207335
47 0.001326414509726
48 -0.009018828996349
49 0.001033494587767
50 -0.001622372079438
51 0.031206042323774
52 0.046684363315900
53 0.002518789650262
54 0.009389676427478
55 0.001229249706549
56 -0.001589923136135
 Sym=      7.1
 Ene=      -0.6174
 Spin= Alpha
 Occup=    2.000000
1 -0.005136503107963
2 -0.008836770283931
3 0.029422280640529
4 0.050288843120873
5 -0.004702078695950
6 0.005735480857325
7 0.10218501595447
8 -0.006948967713759
9 0.008217480186073
10 0.15161076974326
11 -0.006398308436135
12 0.010730639895015
13 0.11892584387963
14 0.002794976692438
15 0.002811103019280
16 -0.005606079711718
17 -0.000012238412579
18 0.000284082157422
19 0.000152000046435
20 -0.046672015949694
21 -0.075465820115982
22 0.038423443773105
23 -0.000022345629828
24 0.003523944214034
25 -0.024875857817100
26 -0.034574910349945
27 -0.058802804612110
28 0.17703395345155
29 0.30027699630326
30 0.004920134457905
31 0.14348035697890
32 0.19553775067273
33 0.007370864075507
34 0.21387221147186
35 0.29545934655364
36 0.006536085978653
37 0.19525460593078
38 0.26400760362643
39 0.002206683950026
40 0.001607599472372
41 -0.003814283422397
42 -0.000292776045120
43 -0.000243547633384
44 -0.014115220356758
45 -0.082236891707378
46 -0.12356319917585
47 -0.032036432512423
48 0.026290179126452
49 0.005613388188873
50 0.005272834720729
51 -0.082177697888577
52 -0.12365876395035
53 -0.032350446713897
54 -0.025999220940207
55 0.005922314851977
56 0.006290523023294
 Sym=      8.1
 Ene=      -0.5939
 Spin= Alpha
 Occup=    2.000000
1 0.000275521727352
2 0.000447517914558
3 -0.000908196814253
4 -0.007400335772335
5 0.021604950558488
6 0.30549130342698
7 0.012662514535398
8 0.032044217439308
9 0.45301988855867
10 0.018699897020036
11 0.031178195206765
12 0.44115365783233
13 0.022432893169979
14 -0.000150217133953
15 0.001064754829640
16 -0.000914537695686
17 0.000227553018012
18 -0.000781810171060
19 -0.011061613799942
20 0.003938131106389
21 0.009171711828109
22 -0.000775581821011
23 0.002167984506917
24 0.031465296096974
25 0.005003991596366
26 0.001171412891582
27 0.001989736081063
28 -0.004807455929174
29 -0.024531668239820
30 -0.000758903826806
31 0.018064026931873
32 -0.024439520088359
33 -0.001119540008858
34 0.025773699265637
35 -0.035627239922559
36 0.000070218315108
37 0.039975476142923
38 -0.032766411771560
39 -0.000305224362612
40 -0.000995610368519
41 0.001300834731131
42 -0.000019137810397
43 0.000069674232471
44 0.000274093932577
45 0.003095762923612
46 0.015845935890688
47 -0.001946720372003
48 -0.003310253598612
49 0.001464186494672
50 -0.000996960628571
51 0.003470052075274
52 0.018618787644887
53 -0.004032040181762
54 0.003441038252189
55 0.001623277866286
56 -0.000910640662826
 Sym=      9.1
 Ene=      -0.5935
 Spin= Alpha
 Occup=    2.000000
1 -0.000042221657080
2 -0.000076652330100
3 0.000336980439877
4 -0.000004000549548
5 0.30747555424392
6 -0.021746096259291
7 0.004739354309730
8 0.45602439190729
9 -0.032251439088898
10 0.007021752886275
11 0.44456566491127
12 -0.031398761413641
13 0.006660605687926
14 0.000343838635554
15 -0.000052549629686
16 -0.000291289005868
17 0.000703883291491
18 -0.011168902114581
19 0.000800336279647
20 -0.000569532227872
21 -0.000646864589610
22 0.001331864502882
23 0.031690322718308
24 -0.002219565005598
25 0.000023107026857
26 -0.000506323716582
27 -0.000863716189928
28 0.002577551442154
29 0.005109193784569
30 -0.005043381077340
31 0.001269839342244
32 0.003244326959435
33 -0.007401847200861
34 0.001988135181672
35 0.004904784880884
36 0.009553998801452
37 0.000780186068071
38 0.003440942564159
39 0.000055911085587
40 0.000056745157536
41 -0.000112656243123
42 -0.000255478915759
43 0.000206083602810
44 -0.000178209447659
45 -0.003585997798085
46 -0.024059072552122
47 0.013904803564872
48 0.001810725613691
49 -0.001544524321729
50 -0.001983241325816
51 0.001369094187389
52 0.019391827157408
53 -0.015329479293110
54 0.000869272820400
55 0.001601680327683
56 0.002103748494730
 Sym=     10.1
 Ene=      -0.5488
 Spin= Alpha
 Occup=    2.000000
1 0.000628515782383
2 0.001056270600448
3 -0.003170713423731
4 -0.018071011877412
5 -0.000724559531797
6 -0.031167466643176
7 -0.044370927899664
8 -0.001070947527109
9 -0.047357733677306
10 -0.066511109263420
11 -0.001257105300753
12 -0.044195123931614
13 -0.048634926288362
14 -0.000935636007580
15 -0.001062853149510
16 0.001998489157089
17 -0.000019740252810
18 -0.000021390613882
19 0.000774329616362
20 0.013230696978401
21 0.040136660566563
22 -0.022677011419159
23 -0.000307454362781
24 -0.001641474211513
25 0.010922340560082
26 -0.001255026305495
27 -0.002221039834460
28 0.010060030388236
29 -0.007879919357091
30 -0.001684421327043
31 0.24144917027136
32 -0.15700271195540
33 -0.002518482192769
34 0.36364482209363
35 -0.23589399982537
36 -0.002647221646477
37 0.38488912933683
38 -0.25038179896164
39 0.000746568125611
40 -0.012218841378281
41 0.011472273252670
42 -0.000207810624863
43 0.000230119795746
44 -0.004765665568320
45 -0.000342283696712
46 0.003799439621127
47 0.002412598186867
48 -0.001048327436299
49 0.025101986928666
50 -0.014986211037408
51 -0.000362945291868
52 0.003656039596021
53 0.002995322161379
54 0.000750578666725
55 0.025086925868991
56 -0.014997138284652
 Sym=     11.1
 Ene=       0.1256
 Spin= Alpha
 Occup=    0.000000
1 0.006387472497043
2 0.011026097947814
3 -0.036106992768898
4 -0.047842732876490
5 -0.000032246156333
6 0.000719892697390
7 0.028388619853461
8 -0.000098542555930
9 0.000999168878454
10 0.041474902138023
11 0.000260774790756
12 0.002061380492590
13 0.032109293765183
14 -0.000155696006503
15 -0.000289972419563
16 0.000445668426066
17 0.000000265050562
18 0.000027614374717
19 0.000185949500037
20 0.013401163340504
21 -0.063401041001053
22 0.14547416871266
23 0.000399344963053
24 0.002187753992953
25 -0.011693827097566
26 0.035740372117077
27 0.058821849703926
28 -0.12144347417277
29 -0.86783739298272
30 0.000981018051462
31 0.038874704828020
32 0.050710205512592
33 0.001732012842903
34 0.062788485111197
35 0.079638063721549
36 0.002870719453029
37 0.11207413874916
38 0.15506949503071
39 -0.001176164900629
40 0.001730111061861
41 -0.000553946161232
42 -0.000070740031358
43 -0.000006190720889
44 -0.004578747564656
45 0.036027192607334
46 -0.036805069086088
47 0.81151706825885
48 0.004419367933488
49 0.001895990558566
50 0.001418417017139
51 0.035863434609520
52 -0.035209460997136
53 0.80139046311175
54 -0.004280066966061
55 0.001999445782822
56 0.001634610130600
 Sym=     12.1
 Ene=       0.1947
 Spin= Alpha
 Occup=    0.000000
1 0.000043304379693
2 0.000085211295899
3 -0.000533355265517
4 0.001692911301788
5 0.008916166345602
6 0.000069368826785
7 0.000156458083978
8 0.014756912416085
9 0.000095227396064
10 0.000079728609837
11 0.010875568535026
12 0.000196676705499
13 -0.000143778760647
14 -0.000002399608781
15 -0.000024191869750
16 0.000026591478531
17 0.000141603036040
18 0.000689545600542
19 0.000002197147119
20 -0.000154837947629
21 -0.001327738094554
22 -0.004185091502704
23 0.000781451038703
24 0.000041169321050
25 -0.000271831190347
26 0.000064984986691
27 0.000104930245040
28 -0.000147163598814
29 -0.002359835651321
30 0.12117294741030
31 -0.000618181533945
32 -0.002000102412792
33 0.13318704758533
34 -0.000615582230170
35 -0.002097596906598
36 0.49341275762340
37 -0.002672009422928
38 -0.008523747912397
39 -0.000123890574204
40 0.000054974402882
41 0.000068916171321
42 -0.002691489361560
43 -0.003122096347685
44 0.000049997771629
45 -0.025443089490202
46 0.11013259116957
47 -1.54855053658303
48 -0.009315749042526
49 0.005016307933311
50 0.007484071924866
51 0.025663058791129
52 -0.11048404774772
53 1.55550044657980
54 -0.009756790632877
55 -0.004907103682996
56 -0.007099451319172
 Sym=     13.1
 Ene=       0.2820
 Spin= Alpha
 Occup=    0.000000
1 0.030282279668382
2 0.050289202852404
3 -0.12036668242228
4 -0.63181094946374
5 -0.001590658630312
6 -0.006620382608212
7 0.057425906767684
8 -0.002489102083176
9 -0.009787950288626
10 0.073481782974976
11 -0.002540349451210
12 -0.011888048526524
13 0.13769155843557
14 0.001502904071349
15 0.001551550676672
16 -0.003054454748021
17 -0.000004818134900
18 0.000026935052932
19 0.000106114271318
20 0.063454068813012
21 -0.30562337671587
22 1.76876627553095
23 0.000600846060783
24 0.002139176622336
25 -0.013677294273618
26 0.008443978532116