
 Working directory              : /tmp/lme/molpro.8p03ox1EQf/
 Global scratch directory       : /tmp/lme/molpro.8p03ox1EQf/
 Wavefunction directory         : /home/lme/wfu/
 Main file repository           : /tmp/lme/molpro.8p03ox1EQf/

 id        : liedlgroup

 Nodes     nprocs
 sv1-c724     6
 GA implementation: MPI file
 GA implementation (serial work in mppx): MPI file

 Using customized tuning parameters: mindgm=1; mindgv=20; mindgc=4; mindgr=1; noblas=0; minvec=7
 default implementation of scratch files=sf  


 Variables initialized (1042), CPU time= 0.02 sec
 ***,water dimer
  memory, 600, m
                                                                                 !gthresh,optgrad=1.d-7,twoint=1.d-14,prefac=1.d-16
  orient,mass
  geometry={
  F,                 -1.91775013,   -0.68023896,    1.17760406
  H,                 -2.67341540,   -0.37418916,    0.98184786
  O,                 -4.44328591,    0.50107374,    0.42201043
  H,                 -4.59637323,    1.34259482,   -0.11624499
  H,                 -4.75972589,   -0.28613702,   -0.02717211
 }
 
 
 mass,iso
  basis=6-311g(d,p)
 
  {hf
  start,atden}
 
 
  optg
  {frequencies, symm=auto, print=0,analytical}
  put,molden, water_hf.molden
 Commands initialized (847), CPU time= 0.01 sec, 718 directives.
 Default parameters read. Elapsed time= 0.13 sec

 Checking input...
 Passed
1


                                         ***  PROGRAM SYSTEM MOLPRO  ***
                                       Copyright, TTI GmbH Stuttgart, 2015
                                    Version 2024.1 linked Wed Jan 31 11:42:09 2024


 **********************************************************************************************************************************
 LABEL *   water dimer                                                                                                                                                   
  (6 PROC) 64 bit mpp version                                                            DATE: 15-Oct-24          TIME: 15:10:52  
 **********************************************************************************************************************************

 SHA1:             675817fde4514a4a933b69e420913a90cee4ef91
 **********************************************************************************************************************************

 Memory per process:       600 MW
 Total memory per node:   3600 MW

 GA preallocation disabled
 GA check disabled

 Variable memory set to 600.0 MW

 ZCENTRE=MASS


 Geometry recognized as XYZ



 Using masses of most abundant isotopes

 **********************************************************************************************************************************
 SETTING BASIS          =    6-311G(D,P)


 Recomputing integrals since basis changed


 Using spherical harmonics

 Library entry F      S 6-311G               selected for orbital group  1
 Library entry F      P 6-311G               selected for orbital group  1
 Library entry F      D 6-311G*              selected for orbital group  1
 Library entry H      S 6-311G               selected for orbital group  2
 Library entry H      P 6-311G**             selected for orbital group  2
 Library entry O      S 6-311G               selected for orbital group  3
 Library entry O      P 6-311G               selected for orbital group  3
 Library entry O      D 6-311G*              selected for orbital group  3


 PROGRAM * SEWARD (Integral evaluation for generally contracted gaussian basis sets)     Author: Roland Lindh, 1990

 Geometry written to block  1 of record 700

 Orientation using atomic masses  
 Molecule type: Asymmetric top
 Rotational constants:       6.2967868      6.2245976    332.3032101 GHz

 Point group  C1  



 ATOMIC COORDINATES

 NR  ATOM    CHARGE       X              Y              Z

   1  F       9.00    0.014184823   -0.012366343    2.662981366
   2  H       1.00   -0.061306914    0.072593154    1.082601014
   3  O       8.00    0.014202143    0.093569312   -2.794896375
   4  H       1.00    1.240219239   -0.764954443   -3.981063168
   5  H       1.00   -1.671707137   -0.559534632   -2.944089094

 Bond lengths in Bohr (Angstrom)

 1-2  1.584461793  3-4  1.909757215  3-5  1.814137076
     ( 0.838461073)     ( 1.010599996)     ( 0.959999998)

 Bond angles

  4-3-5  112.56178154

 NUCLEAR CHARGE:                   20
 NUMBER OF PRIMITIVE AOS:          88
 NUMBER OF SYMMETRY AOS:           86
 NUMBER OF CONTRACTIONS:           54   (   54A   )
 NUMBER OF INNER CORE ORBITALS:     0   (    0A   )
 NUMBER OF OUTER CORE ORBITALS:     2   (    2A   )
 NUMBER OF VALENCE ORBITALS:       11   (   11A   )


 NUCLEAR REPULSION ENERGY   33.12543234


 Eigenvalues of metric

         1 0.181E-01 0.217E-01 0.404E-01 0.771E-01 0.891E-01 0.916E-01 0.102E+00 0.114E+00


 Contracted 2-electron integrals neglected if value below      1.0D-11
 AO integral compression algorithm  1   Integral accuracy      1.0D-11

     4.456 MB (compressed) written to integral file ( 41.4%)

     Node minimum: 0.524 MB, node maximum: 0.786 MB


 NUMBER OF SORTED TWO-ELECTRON INTEGRALS:     183768.     BUFFER LENGTH:  32768
 NUMBER OF SEGMENTS:   1  SEGMENT LENGTH:     183768      RECORD LENGTH: 524288

 Memory used in sort:       0.74 MW

 SORT1 READ     1394767. AND WROTE      120828. INTEGRALS IN      1 RECORDS. CPU TIME:     0.02 SEC, REAL TIME:     0.03 SEC
 SORT2 READ      732742. AND WROTE     1103355. INTEGRALS IN     18 RECORDS. CPU TIME:     0.02 SEC, REAL TIME:     0.01 SEC

 Node minimum:      183274.  Node maximum:      184512. integrals

 OPERATOR DM      FOR CENTER  0  COORDINATES:    0.000000    0.000000    0.000000


 **********************************************************************************************************************************
 DATASETS  * FILE   NREC   LENGTH (MB)   RECORD NAMES
              1      18       28.77       500      610      700      900      950      970     1000      129      960     1100   
                                          VAR    BASINP    GEOM    SYMINP    ZMAT    AOBASIS   BASIS     P2S    ABASIS      S 
                                         1400     1410     1200     1210     1080     1600     1650     1700   
                                           T        V       H0       H01     AOSYM     SMH    MOLCAS    OPER   

 PROGRAMS   *        TOTAL       INT
 CPU TIMES  *         0.70      0.49
 REAL TIME  *         1.13 SEC
 DISK USED  *        29.15 MB (local),      201.82 MB (total)
 GA USED    *         0.00 MB       (max)       0.00 MB       (current)
 **********************************************************************************************************************************


 Program * Restricted Hartree-Fock

 Orbital guess generated from atomic densities.

 Initial occupancy:  10

 NELEC=   20   SYM=1   MS2= 0   THRE=1.0D-08   THRD=1.0D-06   THRG=1.0D-06  HFMA2=F  DIIS_START=2   DIIS_MAX=10   DIIS_INCORE=F

 Level shifts:    0.00 (CLOSED)    0.00 (OPEN)    0.30 (GAP_MIN)

 ITER           ETOT              DE          GRAD        DDIFF     DIIS  NEXP   TIME(IT)  TIME(TOT)  DIAG
   1     -176.03861387    -176.03861387     0.00D+00     0.72D-01     0     0       0.01      0.03    start
   2     -176.08147540      -0.04286152     0.13D-01     0.93D-02     1     0       0.01      0.04    diag
   3     -176.09318133      -0.01170593     0.70D-02     0.30D-02     2     0       0.00      0.04    diag
   4     -176.09350365      -0.00032233     0.80D-03     0.65D-03     3     0       0.00      0.04    diag
   5     -176.09353578      -0.00003213     0.23D-03     0.25D-03     4     0       0.00      0.04    diag
   6     -176.09353913      -0.00000335     0.83D-04     0.65D-04     5     0       0.00      0.04    diag
   7     -176.09353953      -0.00000040     0.23D-04     0.25D-04     6     0       0.01      0.05    diag
   8     -176.09353954      -0.00000002     0.38D-05     0.51D-05     7     0       0.00      0.05    fixocc
   9     -176.09353954      -0.00000000     0.59D-06     0.72D-06     8     0       0.00      0.05    diag
  10     -176.09353954      -0.00000000     0.13D-06     0.11D-06     0     0       0.00      0.05    diag/orth

 Final occupancy:  10

 !RHF STATE 1.1 Energy               -176.093539543240
  RHF One-electron energy            -311.183085782015
  RHF Two-electron energy             101.964113902261
  RHF Kinetic energy                  176.215889245115
  RHF Nuclear energy                   33.125432336514
  RHF Virial quotient                  -0.999305682919

 !RHF STATE 1.1 Dipole moment          -0.21463674    -0.56634995    -1.42158708
 Dipole moment /Debye                  -0.54555218    -1.43951798    -3.61331396

 Orbital energies:

           1.1          2.1          3.1          4.1          5.1          6.1          7.1          8.1          9.1         10.1
    -26.239109   -20.583801    -1.588437    -1.360078    -0.760752    -0.740654    -0.615977    -0.615874    -0.590045    -0.532703

          11.1         12.1
      0.122901     0.192667


 HOMO     10.1    -0.532703 =     -14.4956eV
 LUMO     11.1     0.122901 =       3.3443eV
 LUMO-HOMO         0.655604 =      17.8399eV

 Orbitals saved in record  2100.2


 **********************************************************************************************************************************
 DATASETS  * FILE   NREC   LENGTH (MB)   RECORD NAMES
              1      18       28.77       500      610      700      900      950      970     1000      129      960     1100   
                                          VAR    BASINP    GEOM    SYMINP    ZMAT    AOBASIS   BASIS     P2S    ABASIS      S 
                                         1400     1410     1200     1210     1080     1600     1650     1700   
                                           T        V       H0       H01     AOSYM     SMH    MOLCAS    OPER   

              2       4        0.49       700     1000      520     2100   
                                         GEOM     BASIS   MCVARS     RHF  

 PROGRAMS   *        TOTAL    HF-SCF       INT
 CPU TIMES  *         0.75      0.04      0.49
 REAL TIME  *         1.19 SEC
 DISK USED  *        29.52 MB (local),      204.03 MB (total)
 GA USED    *         0.00 MB       (max)       0.00 MB       (current)
 **********************************************************************************************************************************


 PROGRAM * OPT (Geometry optimization)     Authors: F. Eckert and H.-J. Werner


 BFGS update of hessian

 *** Long output written to logfile /home/lme/Theoretische_Chemie/Paper/Calc_Paper/h2o_hf/water_hf.log ***


 Geometry optimization using default procedure for command HF-SCF

 Geometry written to block  1 of record 700

 PQS Optimization using delocalized internal coordinates

 Point group c1. Number of degrees of freedom:    9

 ITER.   ENERGY(OLD)    ENERGY(NEW)      DE          GRADMAX     GRADNORM    GRADRMS     STEPMAX     STEPLEN     STEPRMS   CPU-time
   1  -176.09353954  -176.10608530    -0.01254576  0.09666426  0.13014961  0.04338320  0.14812644  0.22381000  0.07460333      0.41
   2  -176.10608530  -176.10678433    -0.00069903  0.00848497  0.01196508  0.00398836  0.07509074  0.10162089  0.03387363      0.82
   3  -176.10678433  -176.10850181    -0.00171748  0.00393435  0.00768085  0.00256028  0.34975390  0.50000000  0.16666667      1.25
   4  -176.10850181  -176.10868453    -0.00018272  0.00760200  0.01139935  0.00379978  0.02273159  0.03986604  0.01328868      1.66
   5  -176.10868453  -176.10888568    -0.00020115  0.00318391  0.00622346  0.00207449  0.05934966  0.09749422  0.03249807      2.08
   6  -176.10888568  -176.10892025    -0.00003457  0.00313233  0.00420777  0.00140259  0.01853923  0.03827373  0.01275791      2.51
   7  -176.10892025  -176.10893376    -0.00001351  0.00195150  0.00296724  0.00098908  0.01918570  0.02833314  0.00944438      2.94
   8  -176.10893376  -176.10893436    -0.00000060  0.00035522  0.00058927  0.00019642  0.00140127  0.00224199  0.00074733      3.37
   9  -176.10893436  -176.10893501    -0.00000065  0.00012798  0.00025160  0.00008387  0.00221838  0.00344351  0.00114784      3.80

 END OF GEOMETRY OPTIMIZATION.

 Geometry written to block  1 of record 700

 Recomputing wavefunction for reoriented structure

 Current geometry (xyz format, in Angstrom)

    5
 HF-SCF000/6-311G(D,P)  ENERGY=-176.10893501
 F         -0.0002334839       -0.0070026704        1.3280379960
 H          0.0141892675        0.0565653327        0.4235478236
 O          0.0007536887        0.0392425345       -1.3724935101
 H          0.7456000829       -0.2784785166       -1.8535713820
 H         -0.7673495532       -0.2688875745       -1.8222145717

 **********************************************************************************************************************************


 **********************************************************************************************************************************
 DATASETS  * FILE   NREC   LENGTH (MB)   RECORD NAMES
              1      18       28.77       500      610      700      900      950      970     1000      129      960     1100   
                                          VAR    BASINP    GEOM    SYMINP    ZMAT    AOBASIS   BASIS     P2S    ABASIS      S 
                                         1400     1410     1200     1210     1080     1600     1650     1700   
                                           T        V       H0       H01     AOSYM     SMH    MOLCAS    OPER   

              2       4        0.49       700     1000      520     2100   
                                         GEOM     BASIS   MCVARS     RHF  

 PROGRAMS   *        TOTAL      OPTG    HF-SCF       INT
 CPU TIMES  *         4.92      4.16      0.04      0.49
 REAL TIME  *         5.84 SEC
 DISK USED  *        29.53 MB (local),      204.45 MB (total)
 SF USED    *         0.04 MB
 GA USED    *         0.00 MB       (max)       0.00 MB       (current)
 **********************************************************************************************************************************


 PROGRAM * HESSIAN

 PROGRAM * MCKINLEY (Hessian of the energy)     Author: A. Bernhardsson, R. Lindh

 Orbitals from record         2100.2

 Number of closed-shell orbitals: 10 ( 10 )
 Number of occupied orbitals:     10 ( 10 )

 Number of electrons= 20     Singlet     Space symmetry=1      Wavefunction type: CLOSED          


 McKinley needed      0.52 seconds of CPU time

 Entering CPHF calculation

 CPHF needed 112 iterations for 15 perturbations.  Total CPU time:    0.33 sec


 HF-SCF hessian saved to record  5300.2

 PROGRAM * FREQUENCIES (Calculation of harmonic vibrational spectra for HF-SCF)


 Permanent Dipole Moment [debye]
     1-   3    0.000000    0.000000    0.000000

 Dipole Moment Norm    0.0000000 [debye]

 Dipole Moment Derivatives [debye/ang]
              1             2             3             4             5             6             7             8
    1    0.00000000    0.00000000    0.00000000    0.00000000    0.00000000    0.00000000    0.00000000    0.00000000
    2    0.00000000    0.00000000    0.00000000    0.00000000    0.00000000    0.00000000    0.00000000    0.00000000
    3    0.00000000    0.00000000    0.00000000    0.00000000    0.00000000    0.00000000    0.00000000    0.00000000
              9            10            11            12            13            14            15
    1    0.00000000    0.00000000    0.00000000    0.00000000    0.00000000    0.00000000    0.00000000
    2    0.00000000    0.00000000    0.00000000    0.00000000    0.00000000    0.00000000    0.00000000
    3    0.00000000    0.00000000    0.00000000    0.00000000    0.00000000    0.00000000    0.00000000

 Projecting out rotations and translations

 Force Constants (Second Derivatives of the Energy) in [a.u.]
                             FX1         FY1         FZ1         HX2         HY2     
           FX1           0.0056652
           FY1           0.0007508   0.0093100
           FZ1          -0.0105862  -0.0467033   0.6783189
           HX2          -0.0102997  -0.0007482   0.0105598   0.0204527
           HY2          -0.0007601  -0.0129066   0.0469670   0.0007501   0.0188818
           HZ2           0.0105080   0.0462614  -0.6570858  -0.0105010  -0.0468653
           OX3           0.0062546  -0.0000737   0.0001397  -0.0134177   0.0001670
           OY3          -0.0000184   0.0045721  -0.0005211   0.0000525  -0.0072620
           OZ3          -0.0000504  -0.0013093  -0.0184813   0.0001794   0.0045196
           HX4          -0.0007946   0.0002064  -0.0023075   0.0016978  -0.0003356
           HY4           0.0000652  -0.0004219   0.0001654  -0.0001615   0.0005431
           HZ4          -0.0016517   0.0008743  -0.0013979   0.0048688  -0.0023118
           HX5          -0.0008255  -0.0001353   0.0021942   0.0015669   0.0001785
           HY5          -0.0000375  -0.0005537   0.0000922   0.0001070   0.0007437
           HZ5           0.0017803   0.0008770  -0.0013539  -0.0051070  -0.0023094
                             HZ2         OX3         OY3         OZ3         HX4     
           HZ2           0.6541991
           OX3          -0.0000963   0.8246747
           OY3           0.0001932   0.0007535   0.1653413
           OZ3          -0.0007932  -0.0077799   0.2399744   0.3930979
           HX4           0.0040722  -0.3976595   0.1333586   0.2002196   0.4278271
           HY4           0.0001695   0.1682405  -0.0831922  -0.1263263  -0.1511081
           HZ4           0.0018093   0.2504097  -0.1241675  -0.1960908  -0.2287869
           HX5          -0.0039829  -0.4198520  -0.1341462  -0.1925687  -0.0310709
           HY5           0.0002413  -0.1690873  -0.0794592  -0.1168584   0.0178786
           HZ5           0.0018705  -0.2426732  -0.1154789  -0.1777326   0.0268026
                             HY4         HZ4         HX5         HY5         HZ5     
           HY4           0.0773675
           HZ4           0.1169997   0.1822901
           HX5          -0.0170362  -0.0248399   0.4501816
           HY5           0.0057035   0.0086054   0.1511392   0.0735658
           HZ5           0.0089917   0.0133893   0.2191973   0.1079196   0.1638267


 Atomic Masses
     1-   5   18.998400    1.007825   15.994910    1.007825    1.007825

 Mass weighted Second Derivative Matrix
                             FX1         FY1         FZ1         HX2         HY2     
           FX1           0.0002982
           FY1           0.0000395   0.0004900
           FZ1          -0.0005572  -0.0024583   0.0357040
           HX2          -0.0023538  -0.0001710   0.0024133   0.0202939
           HY2          -0.0001737  -0.0029496   0.0107335   0.0007443   0.0187352
           HZ2           0.0024014   0.0105723  -0.1501658  -0.0104195  -0.0465014
           OX3           0.0003588  -0.0000042   0.0000080  -0.0033419   0.0000416
           OY3          -0.0000011   0.0002623  -0.0000299   0.0000131  -0.0018087
           OZ3          -0.0000029  -0.0000751  -0.0010602   0.0000447   0.0011257
           HX4          -0.0001816   0.0000472  -0.0005273   0.0016847  -0.0003330
           HY4           0.0000149  -0.0000964   0.0000378  -0.0001602   0.0005389
           HZ4          -0.0003775   0.0001998  -0.0003195   0.0048310  -0.0022939
           HX5          -0.0001887  -0.0000309   0.0005015   0.0015547   0.0001771
           HY5          -0.0000086  -0.0001265   0.0000211   0.0001061   0.0007379
           HZ5           0.0004069   0.0002004  -0.0003094  -0.0050673  -0.0022915
                             HZ2         OX3         OY3         OZ3         HX4     
           HZ2           0.6491197
           OX3          -0.0000240   0.0515586
           OY3           0.0000481   0.0000471   0.0103371
           OZ3          -0.0001976  -0.0004864   0.0150032   0.0245764
           HX4           0.0040405  -0.0990439   0.0332153   0.0498681   0.4245054
           HY4           0.0001681   0.0419032  -0.0207204  -0.0314637  -0.1499348
           HZ4           0.0017953   0.0623688  -0.0309261  -0.0488398  -0.2270105
           HX5          -0.0039519  -0.1045714  -0.0334114  -0.0479626  -0.0308297
           HY5           0.0002394  -0.0421141  -0.0197907  -0.0291056   0.0177398
           HZ5           0.0018560  -0.0604419  -0.0287620  -0.0442674   0.0265945
                             HY4         HZ4         HX5         HY5         HZ5     
           HY4           0.0767668
           HZ4           0.1160913   0.1808748
           HX5          -0.0169039  -0.0246471   0.4466863
           HY5           0.0056592   0.0085386   0.1499657   0.0729946
           HZ5           0.0089219   0.0132853   0.2174954   0.1070817   0.1625547


 Mass Weighted 2nd Derivative Matrix Eigenvalues
     1-  10    0.000000    0.000000    0.000000    0.000000    0.000000    0.000000    0.001271    0.001963    0.002017    0.016372
    11-  15    0.023922    0.116288    0.647217    0.678458    0.687987

 Mass Weighted 2nd Derivative Matrix Eigenvectors
              1             2             3             4             5             6             7             8
    1    0.53138299    0.82094083   -0.08014573    0.02427226   -0.03822385   -0.04946388    0.00042922   -0.14137394
    2    0.28087025   -0.12109780   -0.10275950   -0.22525540    0.25311422    0.86835297    0.08500181    0.01180885
    3    0.20392309   -0.08722588    0.56227492    0.28283616   -0.19848932    0.12251514    0.23401130   -0.21257799
    4    0.11259275    0.11073437    0.02444317   -0.04596530    0.04427094   -0.04286126   -0.00046664    0.35071761
    5    0.03830708   -0.01498693   -0.02366022    0.02199011    0.09212447    0.13413865   -0.18444728   -0.02398199
    6    0.04495739   -0.02043232    0.13018851    0.06951280   -0.04249263    0.02308727    0.04141175   -0.04505354
    7    0.54856202   -0.32212224    0.14418538   -0.31993588    0.40699905   -0.40678321    0.00024808    0.18375976
    8   -0.10812833    0.08443843   -0.00844354    0.59253549    0.69005942    0.00959438   -0.29825550   -0.03803189
    9    0.18086821   -0.07707896    0.51746812    0.27307904   -0.17412357    0.09880251   -0.06951064    0.23235758
   10    0.24160155   -0.21073955   -0.12083561    0.05886543    0.01407753   -0.11091409    0.00532524   -0.24262333
   11    0.18764154   -0.15692361   -0.37926238    0.53738441   -0.05270940   -0.01598705    0.51177303    0.18313916
   12    0.06442270   -0.10280592    0.13584647    0.02735191   -0.03088063    0.02331744   -0.39259076   -0.51355286
   13    0.23828012   -0.20506376   -0.11628865    0.05506307    0.01614019   -0.11008929   -0.00771047   -0.22634587
   14   -0.28090199    0.22215462    0.39452306   -0.18194827    0.44655858   -0.04783321    0.49180914   -0.05891665
   15    0.04747678    0.05510109    0.11856146    0.06390879   -0.08406708    0.07285415   -0.38792519    0.55590147
              9            10            11            12            13            14            15
    1    0.05039520   -0.00026862   -0.10113460   -0.00002317    0.00030210   -0.00005513    0.00363786
    2    0.03217525   -0.13559248    0.00059577    0.00056126    0.00140807    0.00001136    0.01600122
    3   -0.59090101   -0.02026714   -0.00355242    0.00846174   -0.01830821   -0.00018970   -0.22428727
    4   -0.12579683    0.00281675    0.91074601   -0.00014800   -0.00139854   -0.00091428   -0.01601721
    5   -0.07016041    0.96225838   -0.00412120   -0.01501572   -0.00751566   -0.00005025   -0.07089386
    6   -0.14515052    0.06846088    0.01435107   -0.00855651    0.07778268    0.00074463    0.96830338
    7   -0.06523611    0.00080271   -0.16764514   -0.00555527   -0.00404808   -0.27362605    0.00054986
    8   -0.10531310   -0.14376396    0.00048988   -0.14114347   -0.10761478    0.00175239    0.00820624
    9    0.66059650    0.03753595    0.00156162   -0.23655799   -0.16175925    0.00570223    0.01183241
   10    0.09338229    0.00495397    0.10298323    0.42360225   -0.56378332    0.53733626    0.04884171
   11    0.13570186    0.09321530   -0.01693982    0.28474513    0.21865171   -0.22919408   -0.01577627
   12    0.22940601   -0.06406493    0.23417217    0.44844917    0.33483222   -0.34851405   -0.02162296
   13    0.07349873   -0.00980227    0.09323905   -0.40122253    0.57999698    0.55389085   -0.05080975
   14    0.21430839    0.10596442    0.01652273    0.29012214    0.21146703    0.22221382   -0.01549540
   15   -0.15039358   -0.06593689   -0.23932068    0.46576997    0.31129272    0.32587649   -0.02001669

   Low Vibration      Wavenumber
        Nr             [1/cm] 
        1                0.00
        2                0.00
        3                0.00
        4                0.00
        5                0.00
        6                0.00

     Vibration        Wavenumber
        Nr             [1/cm] 
        1              183.29
        2              227.74
        3              230.87
        4              657.75
        5              795.06
        6             1752.96
        7             4135.51
        8             4234.15
        9             4263.78

 FREQUENCIES * CALCULATION OF NORMAL MODES FOR HF-SCF


 Atomic Coordinates

  Nr  Atom  Charge       X              Y              Z

   1   F     9.00   -0.000441221   -0.013233129    2.509628096
   2   H     1.00    0.026813830    0.106892987    0.800389387
   3   O     8.00    0.001424265    0.074157643   -2.593636842
   4   H     1.00    1.408979955   -0.526248128   -3.502742264
   5   H     1.00   -1.450080497   -0.508123874   -3.443486481

 Gradient norm at reference geometry: 0.33031D-03

 Normal Modes

                              1 A         2 A         3 A         4 A         5 A  
 Wavenumbers [cm-1]          183.29      227.74      230.87      657.75      795.06
 Intensities [km/mol]          0.00        0.00        0.00        0.00        0.00
 Intensities [relative]        0.00        0.00        0.00        0.00        0.00
           FX1              0.00010    -0.03243     0.01156    -0.00006    -0.02320
           FY1              0.01950     0.00271     0.00738    -0.03111     0.00014
           FZ1              0.05369    -0.04877    -0.13557    -0.00465    -0.00082
           HX2             -0.00046     0.34935    -0.12531     0.00281     0.90720
           HY2             -0.18373    -0.02389    -0.06989     0.95852    -0.00411
           HZ2              0.04125    -0.04488    -0.14459     0.06819     0.01430
           OX3              0.00006     0.04595    -0.01631     0.00020    -0.04192
           OY3             -0.07458    -0.00951    -0.02633    -0.03595     0.00012
           OZ3             -0.01738     0.05810     0.16518     0.00939     0.00039
           HX4              0.00530    -0.24168     0.09302     0.00493     0.10258
           HY4              0.50978     0.18243     0.13517     0.09285    -0.01687
           HZ4             -0.39106    -0.51156     0.22851    -0.06382     0.23326
           HX5             -0.00768    -0.22547     0.07321    -0.00976     0.09288
           HY5              0.48990    -0.05869     0.21347     0.10555     0.01646
           HZ5             -0.38642     0.55374    -0.14981    -0.06568    -0.23839

                              6 A         7 A         8 A         9 A  
 Wavenumbers [cm-1]         1752.96     4135.51     4234.15     4263.78
 Intensities [km/mol]          0.00        0.00        0.00        0.00
 Intensities [relative]        0.00        0.00        0.00        0.00
           FX1             -0.00001     0.00007    -0.00001     0.00083
           FY1              0.00013     0.00032     0.00000     0.00367
           FZ1              0.00194    -0.00420    -0.00004    -0.05146
           HX2             -0.00015    -0.00139    -0.00091    -0.01595
           HY2             -0.01496    -0.00749    -0.00005    -0.07062
           HZ2             -0.00852     0.07748     0.00074     0.96454
           OX3             -0.00139    -0.00101    -0.06842     0.00014
           OY3             -0.03529    -0.02691     0.00044     0.00205
           OZ3             -0.05915    -0.04045     0.00143     0.00296
           HX4              0.42195    -0.56159     0.53525     0.04865
           HY4              0.28364     0.21780    -0.22830    -0.01571
           HZ4              0.44670     0.33353    -0.34716    -0.02154
           HX5             -0.39966     0.57774     0.55174    -0.05061
           HY5              0.28899     0.21064     0.22135    -0.01544
           HZ5              0.46396     0.31008     0.32461    -0.01994


 Normal Modes of low/zero frequencies

                                  1           2           3           4           5
 Wavenumbers [cm-1]            0.00        0.00        0.00        0.00        0.00
 Intensities [km/mol]          0.00        0.00        0.00        0.00        0.00
 Intensities [relative]        0.00        0.00        0.00        0.00        0.00
           FX1              0.12191     0.18834    -0.01839     0.00557    -0.00877
           FY1              0.06444    -0.02778    -0.02358    -0.05168     0.05807
           FZ1              0.04679    -0.02001     0.12900     0.06489    -0.04554
           HX2              0.11215     0.11030     0.02435    -0.04579     0.04410
           HY2              0.03816    -0.01493    -0.02357     0.02190     0.09177
           HZ2              0.04478    -0.02035     0.12968     0.06924    -0.04233
           OX3              0.13716    -0.08054     0.03605    -0.08000     0.10177
           OY3             -0.02704     0.02111    -0.00211     0.14816     0.17254
           OZ3              0.04522    -0.01927     0.12939     0.06828    -0.04354
           HX4              0.24066    -0.20992    -0.12037     0.05864     0.01402
           HY4              0.18691    -0.15631    -0.37779     0.53529    -0.05250
           HZ4              0.06417    -0.10241     0.13532     0.02725    -0.03076
           HX5              0.23735    -0.20427    -0.11584     0.05485     0.01608
           HY5             -0.27981     0.22129     0.39299    -0.18124     0.44482
           HZ5              0.04729     0.05489     0.11810     0.06366    -0.08374

                                  6
 Wavenumbers [cm-1]            0.00
 Intensities [km/mol]          0.00
 Intensities [relative]        0.00
           FX1             -0.01135
           FY1              0.19922
           FZ1              0.02811
           HX2             -0.04269
           HY2              0.13362
           HZ2              0.02300
           OX3             -0.10171
           OY3              0.00240
           OZ3              0.02470
           HX4             -0.11048
           HY4             -0.01592
           HZ4              0.02323
           HX5             -0.10966
           HY5             -0.04765
           HZ5              0.07257


 Frequencies dumped to record   5400.2
 Frequency information read from record  5400.2

 Zero point energy:  0.03754672 [H]     8240.55 [1/CM]       98.58 [KJ/MOL]


 **********************************************************************************************************************************
 DATASETS  * FILE   NREC   LENGTH (MB)   RECORD NAMES
              1      18       28.77       500      610      700      900      950      970     1000      129      960     1100   
                                          VAR    BASINP    GEOM    SYMINP    ZMAT    AOBASIS   BASIS     P2S    ABASIS      S 
                                         1400     1410     1200     1210     1080     1600     1650     1700   
                                           T        V       H0       H01     AOSYM     SMH    MOLCAS    OPER   

              2       7        0.53       700     1000      520     2100     5300     5450     5400   
                                         GEOM     BASIS   MCVARS     RHF     HESS     NMOD     FREQ   

              4       5        0.70      4100     4000     4200     4300     4400   

 PROGRAMS   *        TOTAL      FREQ      OPTG    HF-SCF       INT
 CPU TIMES  *         5.79      0.86      4.16      0.04      0.49
 REAL TIME  *         6.75 SEC
 DISK USED  *        29.53 MB (local),      204.45 MB (total)
 SF USED    *         0.70 MB
 GA USED    *         0.00 MB       (max)       0.00 MB       (current)
 **********************************************************************************************************************************

 Dump information in style MOLDEN to water_hf.molden                                                                 

 Molecular orbitals read from record     2100.2  Type=RHF/CANONICAL  
 Occupation numbers read from record     2100.2  Type=RHF/RHF  
 Orbital energies read from record       2100.2  Type=RHF/CANONICAL  
 Redundancy group numbers read from rec  2100.2  Type=RHF/RHF  

 DUMP ORBITAL  1.1 AS ORBITAL    1  occ=    2.0000  eig=  -26.2228  GROUP=   2
 DUMP ORBITAL  2.1 AS ORBITAL    2  occ=    2.0000  eig=  -20.5911  GROUP=   2
 DUMP ORBITAL  3.1 AS ORBITAL    3  occ=    2.0000  eig=   -1.5462  GROUP=   2
 DUMP ORBITAL  4.1 AS ORBITAL    4  occ=    2.0000  eig=   -1.3968  GROUP=   2
 DUMP ORBITAL  5.1 AS ORBITAL    5  occ=    2.0000  eig=   -0.7668  GROUP=   2
 DUMP ORBITAL  6.1 AS ORBITAL    6  occ=    2.0000  eig=   -0.7300  GROUP=   2
 DUMP ORBITAL  7.1 AS ORBITAL    7  occ=    2.0000  eig=   -0.6174  GROUP=   2
 DUMP ORBITAL  8.1 AS ORBITAL    8  occ=    2.0000  eig=   -0.5939  GROUP=   2
 DUMP ORBITAL  9.1 AS ORBITAL    9  occ=    2.0000  eig=   -0.5935  GROUP=   2
 DUMP ORBITAL 10.1 AS ORBITAL   10  occ=    2.0000  eig=   -0.5488  GROUP=   2

 Total charge:      20.000000
 Frequency information read from record  5400.2

 **********************************************************************************************************************************

 HF/6-311G(D,P)//HF/6-311G(D,P) energy=   -176.108935007980

    OPTG(HF-SCF)          HF-SCF
   -176.10893501   -176.09353954
 **********************************************************************************************************************************
 Molpro calculation terminated
