 Entering Gaussian System, Link 0=g16
 Input=ethanol.com
 Output=ethanol.log
 Initial command:
 /usr/local/g16/l1.exe "/scratch/lme/Gau-1865160.inp" -scrdir="/scratch/lme/"
 Entering Link 1 = /usr/local/g16/l1.exe PID=   1865162.
  
 Copyright (c) 1988,1990,1992,1993,1995,1998,2003,2009,2016,
            Gaussian, Inc.  All Rights Reserved.
  
 This is part of the Gaussian(R) 16 program.  It is based on
 the Gaussian(R) 09 system (copyright 2009, Gaussian, Inc.),
 the Gaussian(R) 03 system (copyright 2003, Gaussian, Inc.),
 the Gaussian(R) 98 system (copyright 1998, Gaussian, Inc.),
 the Gaussian(R) 94 system (copyright 1995, Gaussian, Inc.),
 the Gaussian 92(TM) system (copyright 1992, Gaussian, Inc.),
 the Gaussian 90(TM) system (copyright 1990, Gaussian, Inc.),
 the Gaussian 88(TM) system (copyright 1988, Gaussian, Inc.),
 the Gaussian 86(TM) system (copyright 1986, Carnegie Mellon
 University), and the Gaussian 82(TM) system (copyright 1983,
 Carnegie Mellon University). Gaussian is a federally registered
 trademark of Gaussian, Inc.
  
 This software contains proprietary and confidential information,
 including trade secrets, belonging to Gaussian, Inc.
  
 This software is provided under written license and may be
 used, copied, transmitted, or stored only in accord with that
 written license.
  
 The following legend is applicable only to US Government
 contracts under FAR:
  
                    RESTRICTED RIGHTS LEGEND
  
 Use, reproduction and disclosure by the US Government is
 subject to restrictions as set forth in subparagraphs (a)
 and (c) of the Commercial Computer Software - Restricted
 Rights clause in FAR 52.227-19.
  
 Gaussian, Inc.
 340 Quinnipiac St., Bldg. 40, Wallingford CT 06492
  
  
 ---------------------------------------------------------------
 Warning -- This program may not be used in any manner that
 competes with the business of Gaussian, Inc. or will provide
 assistance to any competitor of Gaussian, Inc.  The licensee
 of this program is prohibited from giving any competitor of
 Gaussian, Inc. access to this program.  By using this program,
 the user acknowledges that Gaussian, Inc. is engaged in the
 business of creating and licensing software in the field of
 computational chemistry and represents and warrants to the
 licensee that it is not a competitor of Gaussian, Inc. and that
 it will not use this program in any manner prohibited above.
 ---------------------------------------------------------------
  

 Cite this work as:
 Gaussian 16, Revision A.03,
 M. J. Frisch, G. W. Trucks, H. B. Schlegel, G. E. Scuseria, 
 M. A. Robb, J. R. Cheeseman, G. Scalmani, V. Barone, 
 G. A. Petersson, H. Nakatsuji, X. Li, M. Caricato, A. V. Marenich, 
 J. Bloino, B. G. Janesko, R. Gomperts, B. Mennucci, H. P. Hratchian, 
 J. V. Ortiz, A. F. Izmaylov, J. L. Sonnenberg, D. Williams-Young, 
 F. Ding, F. Lipparini, F. Egidi, J. Goings, B. Peng, A. Petrone, 
 T. Henderson, D. Ranasinghe, V. G. Zakrzewski, J. Gao, N. Rega, 
 G. Zheng, W. Liang, M. Hada, M. Ehara, K. Toyota, R. Fukuda, 
 J. Hasegawa, M. Ishida, T. Nakajima, Y. Honda, O. Kitao, H. Nakai, 
 T. Vreven, K. Throssell, J. A. Montgomery, Jr., J. E. Peralta, 
 F. Ogliaro, M. J. Bearpark, J. J. Heyd, E. N. Brothers, K. N. Kudin, 
 V. N. Staroverov, T. A. Keith, R. Kobayashi, J. Normand, 
 K. Raghavachari, A. P. Rendell, J. C. Burant, S. S. Iyengar, 
 J. Tomasi, M. Cossi, J. M. Millam, M. Klene, C. Adamo, R. Cammi, 
 J. W. Ochterski, R. L. Martin, K. Morokuma, O. Farkas, 
 J. B. Foresman, and D. J. Fox, Gaussian, Inc., Wallingford CT, 2016.
 
 ******************************************
 Gaussian 16:  ES64L-G16RevA.03 25-Dec-2016
                16-Sep-2024 
 ******************************************
 %chk=ethanol.chk
 ---------------------------------------
 #p opt freq hf/6-311g geom=connectivity
 ---------------------------------------
 1/18=20,19=15,38=1,57=2/1,3;
 2/9=110,12=2,17=6,18=5,40=1/2;
 3/5=4,6=6,11=9,25=1,30=1,71=1/1,2,3;
 4//1;
 5/5=2,38=5/2;
 6/7=2,8=2,9=2,10=2,28=1/1;
 7//1,2,3,16;
 1/18=20,19=15/3(2);
 2/9=110/2;
 99//99;
 2/9=110/2;
 3/5=4,6=6,11=9,25=1,30=1,71=1/1,2,3;
 4/5=5,16=3,69=1/1;
 5/5=2,38=5/2;
 7//1,2,3,16;
 1/18=20,19=15/3(-5);
 2/9=110/2;
 6/7=2,8=2,9=2,10=2,19=2,28=1/1;
 99/9=1/99;
 Leave Link    1 at Mon Sep 16 13:46:34 2024, MaxMem=           0 cpu:               0.0 elap:               0.0
 (Enter /usr/local/g16/l101.exe)
 -------------------
 Title Card Required
 -------------------
 Symbolic Z-matrix:
 Charge =  0 Multiplicity = 2
 C                    -1.19048  -0.00722   0. 
 H                    -0.83382  -1.01603   0. 
 H                    -0.8338    0.49718  -0.87365 
 C                    -0.67713   0.71874   1.2574 
 H                    -1.03219   1.72811   1.25643 
 H                    -1.0354    0.21547   2.13105 
 H                     0.39286   0.71703   1.25838 
 O                    -2.62048  -0.0072    0. 
 
 ITRead=  0  0  0  0  0  0  0  0
 MicOpt= -1 -1 -1 -1 -1 -1 -1 -1
 NAtoms=      8 NQM=        8 NQMF=       0 NMMI=      0 NMMIF=      0
                NMic=       0 NMicF=      0.
                    Isotopes and Nuclear Properties:
 (Nuclear quadrupole moments (NQMom) in fm**2, nuclear magnetic moments (NMagM)
  in nuclear magnetons)

  Atom         1           2           3           4           5           6           7           8
 IAtWgt=          12           1           1          12           1           1           1          16
 AtmWgt=  12.0000000   1.0078250   1.0078250  12.0000000   1.0078250   1.0078250   1.0078250  15.9949146
 NucSpn=           0           1           1           0           1           1           1           0
 AtZEff=  -0.0000000  -0.0000000  -0.0000000  -0.0000000  -0.0000000  -0.0000000  -0.0000000  -0.0000000
 NQMom=    0.0000000   0.0000000   0.0000000   0.0000000   0.0000000   0.0000000   0.0000000   0.0000000
 NMagM=    0.0000000   2.7928460   2.7928460   0.0000000   2.7928460   2.7928460   2.7928460   0.0000000
 AtZNuc=   6.0000000   1.0000000   1.0000000   6.0000000   1.0000000   1.0000000   1.0000000   8.0000000
 Leave Link  101 at Mon Sep 16 13:46:34 2024, MaxMem=   104857600 cpu:               0.1 elap:               0.1
 (Enter /usr/local/g16/l103.exe)

 GradGradGradGradGradGradGradGradGradGradGradGradGradGradGradGradGradGrad
 Berny optimization.
 Initialization pass.
                           ----------------------------
                           !    Initial Parameters    !
                           ! (Angstroms and Degrees)  !
 --------------------------                            --------------------------
 ! Name  Definition              Value          Derivative Info.                !
 --------------------------------------------------------------------------------
 ! R1    R(1,2)                  1.07           estimate D2E/DX2                !
 ! R2    R(1,3)                  1.07           estimate D2E/DX2                !
 ! R3    R(1,4)                  1.54           estimate D2E/DX2                !
 ! R4    R(1,8)                  1.43           estimate D2E/DX2                !
 ! R5    R(4,5)                  1.07           estimate D2E/DX2                !
 ! R6    R(4,6)                  1.07           estimate D2E/DX2                !
 ! R7    R(4,7)                  1.07           estimate D2E/DX2                !
 ! A1    A(2,1,3)              109.4712         estimate D2E/DX2                !
 ! A2    A(2,1,4)              109.4712         estimate D2E/DX2                !
 ! A3    A(2,1,8)              109.4712         estimate D2E/DX2                !
 ! A4    A(3,1,4)              109.4713         estimate D2E/DX2                !
 ! A5    A(3,1,8)              109.4712         estimate D2E/DX2                !
 ! A6    A(4,1,8)              109.4712         estimate D2E/DX2                !
 ! A7    A(1,4,5)              109.4712         estimate D2E/DX2                !
 ! A8    A(1,4,6)              109.4712         estimate D2E/DX2                !
 ! A9    A(1,4,7)              109.4712         estimate D2E/DX2                !
 ! A10   A(5,4,6)              109.4713         estimate D2E/DX2                !
 ! A11   A(5,4,7)              109.4712         estimate D2E/DX2                !
 ! A12   A(6,4,7)              109.4712         estimate D2E/DX2                !
 ! D1    D(2,1,4,5)            179.8889         estimate D2E/DX2                !
 ! D2    D(2,1,4,6)            -60.1111         estimate D2E/DX2                !
 ! D3    D(2,1,4,7)             59.8889         estimate D2E/DX2                !
 ! D4    D(3,1,4,5)             59.8889         estimate D2E/DX2                !
 ! D5    D(3,1,4,6)            179.8889         estimate D2E/DX2                !
 ! D6    D(3,1,4,7)            -60.1111         estimate D2E/DX2                !
 ! D7    D(8,1,4,5)            -60.1111         estimate D2E/DX2                !
 ! D8    D(8,1,4,6)             59.8889         estimate D2E/DX2                !
 ! D9    D(8,1,4,7)            179.8889         estimate D2E/DX2                !
 --------------------------------------------------------------------------------
 Trust Radius=3.00D-01 FncErr=1.00D-07 GrdErr=1.00D-07 EigMax=2.50D+02 EigMin=1.00D-04
 Number of steps in this run=     38 maximum allowed number of steps=    100.
 GradGradGradGradGradGradGradGradGradGradGradGradGradGradGradGradGradGrad

 Leave Link  103 at Mon Sep 16 13:46:34 2024, MaxMem=   104857600 cpu:               0.0 elap:               0.0
 (Enter /usr/local/g16/l202.exe)
                          Input orientation:                          
 ---------------------------------------------------------------------
 Center     Atomic      Atomic             Coordinates (Angstroms)
 Number     Number       Type             X           Y           Z
 ---------------------------------------------------------------------
      1          6           0       -1.190476   -0.007215    0.000000
      2          1           0       -0.833822   -1.016025    0.000000
      3          1           0       -0.833803    0.497183   -0.873652
      4          6           0       -0.677134    0.718741    1.257405
      5          1           0       -1.032190    1.728114    1.256427
      6          1           0       -1.035403    0.215473    2.131055
      7          1           0        0.392864    0.717035    1.258384
      8          8           0       -2.620476   -0.007197    0.000000
 ---------------------------------------------------------------------
                    Distance matrix (angstroms):
                    1          2          3          4          5
     1  C    0.000000
     2  H    1.070000   0.000000
     3  H    1.070000   1.747302   0.000000
     4  C    1.540000   2.148263   2.148263   0.000000
     5  H    2.148263   3.024609   2.468154   1.070000   0.000000
     6  H    2.148263   2.469538   3.024610   1.070000   1.747303
     7  H    2.148263   2.468154   2.469539   1.070000   1.747303
     8  O    1.430000   2.051796   2.051796   2.425826   2.666940
                    6          7          8
     6  H    0.000000
     7  H    1.747303   0.000000
     8  O    2.665227   3.344886   0.000000
 Stoichiometry    C2H5O(2)
 Framework group  C1[X(C2H5O)]
 Deg. of freedom    18
 Full point group                 C1      NOp   1
 Largest Abelian subgroup         C1      NOp   1
 Largest concise Abelian subgroup C1      NOp   1
                         Standard orientation:                         
 ---------------------------------------------------------------------
 Center     Atomic      Atomic             Coordinates (Angstroms)
 Number     Number       Type             X           Y           Z
 ---------------------------------------------------------------------
      1          6           0       -0.162423    0.547473    0.000000
      2          1           0       -0.216381    1.162877   -0.873651
      3          1           0       -0.216382    1.162878    0.873651
      4          6           0        1.167837   -0.228420    0.000000
      5          1           0        1.222649   -0.842359    0.874628
      6          1           0        1.220942   -0.845286   -0.872672
      7          1           0        1.984189    0.463292   -0.001956
      8          8           0       -1.253437   -0.376965   -0.000000
 ---------------------------------------------------------------------
 Rotational constants (GHZ):          36.4600770           9.7799338           8.5105941
 Leave Link  202 at Mon Sep 16 13:46:34 2024, MaxMem=   104857600 cpu:               0.0 elap:               0.0
 (Enter /usr/local/g16/l301.exe)
 Standard basis: 6-311G (5D, 7F)
 Ernie: Thresh=  0.10000D-02 Tol=  0.10000D-05 Strict=F.
 There are    54 symmetry adapted cartesian basis functions of A   symmetry.
 There are    54 symmetry adapted basis functions of A   symmetry.
    54 basis functions,   103 primitive gaussians,    54 cartesian basis functions
    13 alpha electrons       12 beta electrons
       nuclear repulsion energy        73.8170615405 Hartrees.
 IExCor=    0 DFT=F Ex=HF Corr=None ExCW=0 ScaHFX=  1.000000
 ScaDFX=  1.000000  1.000000  1.000000  1.000000 ScalE2=  1.000000  1.000000
 IRadAn=      5 IRanWt=     -1 IRanGd=            0 ICorTp=0 IEmpDi=  4
 NAtoms=    8 NActive=    8 NUniq=    8 SFac= 1.00D+00 NAtFMM=   60 NAOKFM=F Big=F
 Integral buffers will be    131072 words long.
 Raffenetti 2 integral format.
 Two-electron integral symmetry is turned on.
 Leave Link  301 at Mon Sep 16 13:46:34 2024, MaxMem=   104857600 cpu:               0.0 elap:               0.0
 (Enter /usr/local/g16/l302.exe)
 NPDir=0 NMtPBC=     1 NCelOv=     1 NCel=       1 NClECP=     1 NCelD=      1
         NCelK=      1 NCelE2=     1 NClLst=     1 CellRange=     0.0.
 One-electron integrals computed using PRISM.
 One-electron integral symmetry used in STVInt
 NBasis=    54 RedAO= T EigKep=  4.55D-03  NBF=    54
 NBsUse=    54 1.00D-06 EigRej= -1.00D+00 NBFU=    54
 Leave Link  302 at Mon Sep 16 13:46:34 2024, MaxMem=   104857600 cpu:               0.1 elap:               0.1
 (Enter /usr/local/g16/l303.exe)
 DipDrv:  MaxL=1.
 Leave Link  303 at Mon Sep 16 13:46:34 2024, MaxMem=   104857600 cpu:               0.0 elap:               0.0
 (Enter /usr/local/g16/l401.exe)
 ExpMin= 1.03D-01 ExpMax= 8.59D+03 ExpMxC= 1.30D+03 IAcc=3 IRadAn=         5 AccDes= 0.00D+00
 Harris functional with IExCor=  205 and IRadAn=       5 diagonalized for initial guess.
 HarFok:  IExCor=  205 AccDes= 0.00D+00 IRadAn=         5 IDoV= 1 UseB2=F ITyADJ=14
 ICtDFT=  3500011 ScaDFX=  1.000000  1.000000  1.000000  1.000000
 FoFCou: FMM=F IPFlag=           0 FMFlag=      100000 FMFlg1=           0
         NFxFlg=           0 DoJE=T BraDBF=F KetDBF=T FulRan=T
         wScrn=  0.000000 ICntrl=       500 IOpCl=  0 I1Cent=   200000004 NGrid=           0
         NMat0=    1 NMatS0=      1 NMatT0=    0 NMatD0=    1 NMtDS0=    0 NMtDT0=    0
 Petite list used in FoFCou.
 Harris En= -153.629273854351    
 JPrj=0 DoOrth=F DoCkMO=F.
 Initial guess <Sx>= 0.0000 <Sy>= 0.0000 <Sz>= 0.5000 <S**2>= 0.7500 S= 0.5000
 Leave Link  401 at Mon Sep 16 13:46:35 2024, MaxMem=   104857600 cpu:               0.4 elap:               0.4
 (Enter /usr/local/g16/l502.exe)
 Keep R1 and R2 ints in memory in canonical form, NReq=3035135.
 FoFCou: FMM=F IPFlag=           0 FMFlag=           0 FMFlg1=           0
         NFxFlg=           0 DoJE=F BraDBF=F KetDBF=F FulRan=T
         wScrn=  0.000000 ICntrl=       600 IOpCl=  0 I1Cent=           0 NGrid=           0
         NMat0=    1 NMatS0=   1485 NMatT0=    0 NMatD0=    1 NMtDS0=    0 NMtDT0=    0
 Symmetry not used in FoFCou.
 Two-electron integral symmetry not used.
 UHF open shell SCF:
 Using DIIS extrapolation, IDIIS=  1040.
 NGot=   104857600 LenX=   102643909 LenY=   102640552
 Requested convergence on RMS density matrix=1.00D-08 within 128 cycles.
 Requested convergence on MAX density matrix=1.00D-06.
 Requested convergence on             energy=1.00D-06.
 No special actions if energy rises.

 Cycle   1  Pass 1  IDiag  1:
 E= -153.264397621594    
 DIIS: error= 6.94D-02 at cycle   1 NSaved=   1.
 NSaved= 1 IEnMin= 1 EnMin= -153.264397621594     IErMin= 1 ErrMin= 6.94D-02
 ErrMax= 6.94D-02  0.00D+00 EMaxC= 1.00D-01 BMatC= 1.20D+00 BMatP= 1.20D+00
 IDIUse=3 WtCom= 3.06D-01 WtEn= 6.94D-01
 Coeff-Com:  0.100D+01
 Coeff-En:   0.100D+01
 Coeff:      0.100D+01
 Gap=     0.686 Goal=   None    Shift=    0.000
 Gap=     0.545 Goal=   None    Shift=    0.000
 GapD=    0.545 DampG=2.000 DampE=0.500 DampFc=1.0000 IDamp=-1.
 RMSDP=6.30D-03 MaxDP=1.15D-01              OVMax= 1.53D-01

 Cycle   2  Pass 1  IDiag  1:
 E= -153.412989659541     Delta-E=       -0.148592037947 Rises=F Damp=F
 DIIS: error= 2.34D-02 at cycle   2 NSaved=   2.
 NSaved= 2 IEnMin= 2 EnMin= -153.412989659541     IErMin= 2 ErrMin= 2.34D-02
 ErrMax= 2.34D-02  0.00D+00 EMaxC= 1.00D-01 BMatC= 9.23D-02 BMatP= 1.20D+00
 IDIUse=3 WtCom= 7.66D-01 WtEn= 2.34D-01
 Coeff-Com:  0.143D+00 0.857D+00
 Coeff-En:   0.000D+00 0.100D+01
 Coeff:      0.109D+00 0.891D+00
 Gap=     0.647 Goal=   None    Shift=    0.000
 Gap=     0.562 Goal=   None    Shift=    0.000
 RMSDP=2.65D-03 MaxDP=4.91D-02 DE=-1.49D-01 OVMax= 5.92D-02

 Cycle   3  Pass 1  IDiag  1:
 E= -153.436027582451     Delta-E=       -0.023037922911 Rises=F Damp=F
 DIIS: error= 8.56D-03 at cycle   3 NSaved=   3.
 NSaved= 3 IEnMin= 3 EnMin= -153.436027582451     IErMin= 3 ErrMin= 8.56D-03
 ErrMax= 8.56D-03  0.00D+00 EMaxC= 1.00D-01 BMatC= 6.91D-03 BMatP= 9.23D-02
 IDIUse=3 WtCom= 9.14D-01 WtEn= 8.56D-02
 Coeff-Com: -0.247D-01 0.144D+00 0.881D+00
 Coeff-En:   0.000D+00 0.000D+00 0.100D+01
 Coeff:     -0.226D-01 0.132D+00 0.891D+00
 Gap=     0.619 Goal=   None    Shift=    0.000
 Gap=     0.550 Goal=   None    Shift=    0.000
 RMSDP=6.34D-04 MaxDP=8.46D-03 DE=-2.30D-02 OVMax= 2.49D-02

 Cycle   4  Pass 1  IDiag  1:
 E= -153.438592932904     Delta-E=       -0.002565350452 Rises=F Damp=F
 DIIS: error= 4.21D-03 at cycle   4 NSaved=   4.
 NSaved= 4 IEnMin= 4 EnMin= -153.438592932904     IErMin= 4 ErrMin= 4.21D-03
 ErrMax= 4.21D-03  0.00D+00 EMaxC= 1.00D-01 BMatC= 5.29D-04 BMatP= 6.91D-03
 IDIUse=3 WtCom= 9.58D-01 WtEn= 4.21D-02
 Coeff-Com:  0.527D-02-0.806D-01-0.295D+00 0.137D+01
 Coeff-En:   0.000D+00 0.000D+00 0.000D+00 0.100D+01
 Coeff:      0.505D-02-0.772D-01-0.283D+00 0.135D+01
 Gap=     0.618 Goal=   None    Shift=    0.000
 Gap=     0.556 Goal=   None    Shift=    0.000
 RMSDP=3.33D-04 MaxDP=4.09D-03 DE=-2.57D-03 OVMax= 1.67D-02

 Cycle   5  Pass 1  IDiag  1:
 E= -153.439040491386     Delta-E=       -0.000447558482 Rises=F Damp=F
 DIIS: error= 1.11D-03 at cycle   5 NSaved=   5.
 NSaved= 5 IEnMin= 5 EnMin= -153.439040491386     IErMin= 5 ErrMin= 1.11D-03
 ErrMax= 1.11D-03  0.00D+00 EMaxC= 1.00D-01 BMatC= 9.91D-05 BMatP= 5.29D-04
 IDIUse=3 WtCom= 9.89D-01 WtEn= 1.11D-02
 Coeff-Com:  0.408D-02-0.356D-01-0.170D+00 0.243D+00 0.959D+00
 Coeff-En:   0.000D+00 0.000D+00 0.000D+00 0.000D+00 0.100D+01
 Coeff:      0.404D-02-0.352D-01-0.168D+00 0.240D+00 0.959D+00
 Gap=     0.620 Goal=   None    Shift=    0.000
 Gap=     0.557 Goal=   None    Shift=    0.000
 RMSDP=1.29D-04 MaxDP=1.69D-03 DE=-4.48D-04 OVMax= 4.38D-03

 Cycle   6  Pass 1  IDiag  1:
 E= -153.439099056167     Delta-E=       -0.000058564782 Rises=F Damp=F
 DIIS: error= 4.86D-04 at cycle   6 NSaved=   6.
 NSaved= 6 IEnMin= 6 EnMin= -153.439099056167     IErMin= 6 ErrMin= 4.86D-04
 ErrMax= 4.86D-04  0.00D+00 EMaxC= 1.00D-01 BMatC= 1.99D-05 BMatP= 9.91D-05
 IDIUse=3 WtCom= 9.95D-01 WtEn= 4.86D-03
 Coeff-Com: -0.241D-02 0.291D-01 0.124D+00-0.331D+00-0.386D+00 0.157D+01
 Coeff-En:   0.000D+00 0.000D+00 0.000D+00 0.000D+00 0.000D+00 0.100D+01
 Coeff:     -0.239D-02 0.290D-01 0.123D+00-0.329D+00-0.384D+00 0.156D+01
 Gap=     0.620 Goal=   None    Shift=    0.000
 Gap=     0.556 Goal=   None    Shift=    0.000
 RMSDP=8.43D-05 MaxDP=1.18D-03 DE=-5.86D-05 OVMax= 1.99D-03

 Cycle   7  Pass 1  IDiag  1:
 E= -153.439116914733     Delta-E=       -0.000017858566 Rises=F Damp=F
 DIIS: error= 2.42D-04 at cycle   7 NSaved=   7.
 NSaved= 7 IEnMin= 7 EnMin= -153.439116914733     IErMin= 7 ErrMin= 2.42D-04
 ErrMax= 2.42D-04  0.00D+00 EMaxC= 1.00D-01 BMatC= 3.93D-06 BMatP= 1.99D-05
 IDIUse=3 WtCom= 9.98D-01 WtEn= 2.42D-03
 Coeff-Com: -0.347D-03 0.150D-02 0.762D-02 0.928D-02-0.122D+00-0.203D+00
 Coeff-Com:  0.131D+01
 Coeff-En:   0.000D+00 0.000D+00 0.000D+00 0.000D+00 0.000D+00 0.000D+00
 Coeff-En:   0.100D+01
 Coeff:     -0.346D-03 0.149D-02 0.760D-02 0.926D-02-0.122D+00-0.203D+00
 Coeff:      0.131D+01
 Gap=     0.620 Goal=   None    Shift=    0.000
 Gap=     0.556 Goal=   None    Shift=    0.000
 RMSDP=3.85D-05 MaxDP=4.16D-04 DE=-1.79D-05 OVMax= 1.01D-03

 Cycle   8  Pass 1  IDiag  1:
 E= -153.439120772751     Delta-E=       -0.000003858018 Rises=F Damp=F
 DIIS: error= 1.17D-04 at cycle   8 NSaved=   8.
 NSaved= 8 IEnMin= 8 EnMin= -153.439120772751     IErMin= 8 ErrMin= 1.17D-04
 ErrMax= 1.17D-04  0.00D+00 EMaxC= 1.00D-01 BMatC= 8.45D-07 BMatP= 3.93D-06
 IDIUse=3 WtCom= 9.99D-01 WtEn= 1.17D-03
 Coeff-Com:  0.605D-03-0.751D-02-0.325D-01 0.843D-01 0.107D+00-0.426D+00
 Coeff-Com:  0.104D-01 0.126D+01
 Coeff-En:   0.000D+00 0.000D+00 0.000D+00 0.000D+00 0.000D+00 0.000D+00
 Coeff-En:   0.000D+00 0.100D+01
 Coeff:      0.604D-03-0.750D-02-0.324D-01 0.842D-01 0.107D+00-0.425D+00
 Coeff:      0.104D-01 0.126D+01
 Gap=     0.621 Goal=   None    Shift=    0.000
 Gap=     0.556 Goal=   None    Shift=    0.000
 RMSDP=2.17D-05 MaxDP=2.12D-04 DE=-3.86D-06 OVMax= 6.62D-04

 Cycle   9  Pass 1  IDiag  1:
 E= -153.439121645093     Delta-E=       -0.000000872342 Rises=F Damp=F
 DIIS: error= 2.67D-05 at cycle   9 NSaved=   9.
 NSaved= 9 IEnMin= 9 EnMin= -153.439121645093     IErMin= 9 ErrMin= 2.67D-05
 ErrMax= 2.67D-05  0.00D+00 EMaxC= 1.00D-01 BMatC= 1.07D-07 BMatP= 8.45D-07
 IDIUse=1 WtCom= 1.00D+00 WtEn= 0.00D+00
 Coeff-Com: -0.184D-03 0.274D-02 0.123D-01-0.372D-01-0.208D-01 0.206D+00
 Coeff-Com: -0.190D+00-0.585D+00 0.161D+01
 Coeff:     -0.184D-03 0.274D-02 0.123D-01-0.372D-01-0.208D-01 0.206D+00
 Coeff:     -0.190D+00-0.585D+00 0.161D+01
 Gap=     0.621 Goal=   None    Shift=    0.000
 Gap=     0.556 Goal=   None    Shift=    0.000
 RMSDP=9.27D-06 MaxDP=1.40D-04 DE=-8.72D-07 OVMax= 2.30D-04

 Cycle  10  Pass 1  IDiag  1:
 E= -153.439121753706     Delta-E=       -0.000000108613 Rises=F Damp=F
 DIIS: error= 1.04D-05 at cycle  10 NSaved=  10.
 NSaved=10 IEnMin=10 EnMin= -153.439121753706     IErMin=10 ErrMin= 1.04D-05
 ErrMax= 1.04D-05  0.00D+00 EMaxC= 1.00D-01 BMatC= 1.26D-08 BMatP= 1.07D-07
 IDIUse=1 WtCom= 1.00D+00 WtEn= 0.00D+00
 Coeff-Com:  0.586D-04-0.957D-03-0.449D-02 0.142D-01-0.105D-02-0.692D-01
 Coeff-Com:  0.894D-01 0.233D+00-0.880D+00 0.162D+01
 Coeff:      0.586D-04-0.957D-03-0.449D-02 0.142D-01-0.105D-02-0.692D-01
 Coeff:      0.894D-01 0.233D+00-0.880D+00 0.162D+01
 Gap=     0.621 Goal=   None    Shift=    0.000
 Gap=     0.556 Goal=   None    Shift=    0.000
 RMSDP=2.57D-06 MaxDP=3.05D-05 DE=-1.09D-07 OVMax= 4.68D-05

 Cycle  11  Pass 1  IDiag  1:
 E= -153.439121766150     Delta-E=       -0.000000012444 Rises=F Damp=F
 DIIS: error= 4.35D-06 at cycle  11 NSaved=  11.
 NSaved=11 IEnMin=11 EnMin= -153.439121766150     IErMin=11 ErrMin= 4.35D-06
 ErrMax= 4.35D-06  0.00D+00 EMaxC= 1.00D-01 BMatC= 2.40D-09 BMatP= 1.26D-08
 IDIUse=1 WtCom= 1.00D+00 WtEn= 0.00D+00
 Coeff-Com: -0.139D-04 0.193D-03 0.931D-03-0.288D-02 0.446D-02 0.287D-02
 Coeff-Com: -0.475D-02-0.489D-01 0.176D+00-0.808D+00 0.168D+01
 Coeff:     -0.139D-04 0.193D-03 0.931D-03-0.288D-02 0.446D-02 0.287D-02
 Coeff:     -0.475D-02-0.489D-01 0.176D+00-0.808D+00 0.168D+01
 Gap=     0.621 Goal=   None    Shift=    0.000
 Gap=     0.556 Goal=   None    Shift=    0.000
 RMSDP=1.42D-06 MaxDP=1.73D-05 DE=-1.24D-08 OVMax= 2.71D-05

 Cycle  12  Pass 1  IDiag  1:
 E= -153.439121768875     Delta-E=       -0.000000002725 Rises=F Damp=F
 DIIS: error= 1.41D-06 at cycle  12 NSaved=  12.
 NSaved=12 IEnMin=12 EnMin= -153.439121768875     IErMin=12 ErrMin= 1.41D-06
 ErrMax= 1.41D-06  0.00D+00 EMaxC= 1.00D-01 BMatC= 1.96D-10 BMatP= 2.40D-09
 IDIUse=1 WtCom= 1.00D+00 WtEn= 0.00D+00
 Coeff-Com:  0.199D-05-0.894D-05-0.443D-04 0.614D-04-0.170D-02 0.528D-02
 Coeff-Com: -0.846D-02 0.977D-03 0.191D-01 0.117D+00-0.631D+00 0.150D+01
 Coeff:      0.199D-05-0.894D-05-0.443D-04 0.614D-04-0.170D-02 0.528D-02
 Coeff:     -0.846D-02 0.977D-03 0.191D-01 0.117D+00-0.631D+00 0.150D+01
 Gap=     0.621 Goal=   None    Shift=    0.000
 Gap=     0.556 Goal=   None    Shift=    0.000
 RMSDP=4.09D-07 MaxDP=4.79D-06 DE=-2.72D-09 OVMax= 6.67D-06

 Cycle  13  Pass 1  IDiag  1:
 E= -153.439121769078     Delta-E=       -0.000000000203 Rises=F Damp=F
 DIIS: error= 3.78D-07 at cycle  13 NSaved=  13.
 NSaved=13 IEnMin=13 EnMin= -153.439121769078     IErMin=13 ErrMin= 3.78D-07
 ErrMax= 3.78D-07  0.00D+00 EMaxC= 1.00D-01 BMatC= 1.56D-11 BMatP= 1.96D-10
 IDIUse=1 WtCom= 1.00D+00 WtEn= 0.00D+00
 Coeff-Com: -0.900D-07-0.843D-05-0.371D-04 0.147D-03 0.725D-03-0.322D-02
 Coeff-Com:  0.519D-02 0.248D-02-0.222D-01-0.106D-01 0.243D+00-0.859D+00
 Coeff-Com:  0.164D+01
 Coeff:     -0.900D-07-0.843D-05-0.371D-04 0.147D-03 0.725D-03-0.322D-02
 Coeff:      0.519D-02 0.248D-02-0.222D-01-0.106D-01 0.243D+00-0.859D+00
 Coeff:      0.164D+01
 Gap=     0.621 Goal=   None    Shift=    0.000
 Gap=     0.556 Goal=   None    Shift=    0.000
 RMSDP=9.57D-08 MaxDP=1.04D-06 DE=-2.03D-10 OVMax= 1.79D-06

 Cycle  14  Pass 1  IDiag  1:
 E= -153.439121769093     Delta-E=       -0.000000000015 Rises=F Damp=F
 DIIS: error= 1.12D-07 at cycle  14 NSaved=  14.
 NSaved=14 IEnMin=14 EnMin= -153.439121769093     IErMin=14 ErrMin= 1.12D-07
 ErrMax= 1.12D-07  0.00D+00 EMaxC= 1.00D-01 BMatC= 1.97D-12 BMatP= 1.56D-11
 IDIUse=1 WtCom= 1.00D+00 WtEn= 0.00D+00
 Coeff-Com: -0.364D-07 0.353D-05 0.157D-04-0.550D-04-0.218D-03 0.105D-02
 Coeff-Com: -0.177D-02-0.963D-03 0.851D-02-0.238D-02-0.720D-01 0.316D+00
 Coeff-Com: -0.899D+00 0.165D+01
 Coeff:     -0.364D-07 0.353D-05 0.157D-04-0.550D-04-0.218D-03 0.105D-02
 Coeff:     -0.177D-02-0.963D-03 0.851D-02-0.238D-02-0.720D-01 0.316D+00
 Coeff:     -0.899D+00 0.165D+01
 Gap=     0.621 Goal=   None    Shift=    0.000
 Gap=     0.556 Goal=   None    Shift=    0.000
 RMSDP=3.82D-08 MaxDP=4.27D-07 DE=-1.48D-11 OVMax= 9.52D-07

 Cycle  15  Pass 1  IDiag  1:
 E= -153.439121769095     Delta-E=       -0.000000000003 Rises=F Damp=F
 DIIS: error= 1.01D-07 at cycle  15 NSaved=  15.
 NSaved=15 IEnMin=15 EnMin= -153.439121769095     IErMin=15 ErrMin= 1.01D-07
 ErrMax= 1.01D-07  0.00D+00 EMaxC= 1.00D-01 BMatC= 4.47D-13 BMatP= 1.97D-12
 IDIUse=1 WtCom= 1.00D+00 WtEn= 0.00D+00
 Coeff-Com: -0.415D-07-0.608D-06-0.262D-05 0.108D-04 0.896D-04-0.395D-03
 Coeff-Com:  0.717D-03 0.223D-03-0.331D-02 0.913D-03 0.336D-01-0.159D+00
 Coeff-Com:  0.528D+00-0.130D+01 0.190D+01
 Coeff:     -0.415D-07-0.608D-06-0.262D-05 0.108D-04 0.896D-04-0.395D-03
 Coeff:      0.717D-03 0.223D-03-0.331D-02 0.913D-03 0.336D-01-0.159D+00
 Coeff:      0.528D+00-0.130D+01 0.190D+01
 Gap=     0.621 Goal=   None    Shift=    0.000
 Gap=     0.556 Goal=   None    Shift=    0.000
 RMSDP=1.95D-08 MaxDP=2.07D-07 DE=-2.67D-12 OVMax= 9.39D-07

 Cycle  16  Pass 1  IDiag  1:
 E= -153.439121769096     Delta-E=       -0.000000000001 Rises=F Damp=F
 DIIS: error= 1.01D-07 at cycle  16 NSaved=  16.
 NSaved=16 IEnMin=16 EnMin= -153.439121769096     IErMin=15 ErrMin= 1.01D-07
 ErrMax= 1.01D-07  0.00D+00 EMaxC= 1.00D-01 BMatC= 2.26D-13 BMatP= 4.47D-13
 IDIUse=1 WtCom= 1.00D+00 WtEn= 0.00D+00
 Large coefficients: NSaved= 16 BigCof=    0.00 CofMax=   10.00 Det=-7.41D-15
 Inversion failed.  Reducing to 15 matrices.
 Coeff-Com:  0.402D-06 0.182D-05-0.608D-05-0.328D-04 0.152D-03-0.268D-03
 Coeff-Com: -0.109D-03 0.129D-02-0.371D-03-0.127D-01 0.608D-01-0.215D+00
 Coeff-Com:  0.591D+00-0.112D+01 0.170D+01
 Coeff:      0.402D-06 0.182D-05-0.608D-05-0.328D-04 0.152D-03-0.268D-03
 Coeff:     -0.109D-03 0.129D-02-0.371D-03-0.127D-01 0.608D-01-0.215D+00
 Coeff:      0.591D+00-0.112D+01 0.170D+01
 Gap=     0.621 Goal=   None    Shift=    0.000
 Gap=     0.556 Goal=   None    Shift=    0.000
 RMSDP=1.07D-08 MaxDP=1.50D-07 DE=-7.96D-13 OVMax= 8.37D-07

 Cycle  17  Pass 1  IDiag  1:
 E= -153.439121769096     Delta-E=       -0.000000000000 Rises=F Damp=F
 DIIS: error= 1.01D-07 at cycle  17 NSaved=  16.
 NSaved=16 IEnMin=16 EnMin= -153.439121769096     IErMin=14 ErrMin= 1.01D-07
 ErrMax= 1.01D-07  0.00D+00 EMaxC= 1.00D-01 BMatC= 2.09D-13 BMatP= 2.26D-13
 IDIUse=1 WtCom= 1.00D+00 WtEn= 0.00D+00
 Large coefficients: NSaved= 16 BigCof=    0.00 CofMax=   10.00 Det=-6.02D-16
 Inversion failed.  Reducing to 15 matrices.
 Coeff-Com: -0.395D-07-0.628D-08 0.512D-05-0.193D-04 0.364D-04 0.400D-05
 Coeff-Com: -0.160D-03-0.101D-04 0.225D-02-0.108D-01 0.413D-01-0.125D+00
 Coeff-Com:  0.271D+00-0.568D+00 0.139D+01
 Coeff:     -0.395D-07-0.628D-08 0.512D-05-0.193D-04 0.364D-04 0.400D-05
 Coeff:     -0.160D-03-0.101D-04 0.225D-02-0.108D-01 0.413D-01-0.125D+00
 Coeff:      0.271D+00-0.568D+00 0.139D+01
 Gap=     0.621 Goal=   None    Shift=    0.000
 Gap=     0.556 Goal=   None    Shift=    0.000
 RMSDP=7.81D-09 MaxDP=1.17D-07 DE=-4.26D-13 OVMax= 6.52D-07

 SCF Done:  E(UHF) =  -153.439121769     A.U. after   17 cycles
            NFock= 17  Conv=0.78D-08     -V/T= 1.9989
 <Sx>= 0.0000 <Sy>= 0.0000 <Sz>= 0.5000 <S**2>= 0.7572 S= 0.5036
 <L.S>= 0.000000000000E+00
 KE= 1.536044776898D+02 PE=-5.081809249399D+02 EE= 1.273202639405D+02
 Annihilation of the first spin contaminant:
 S**2 before annihilation     0.7572,   after     0.7500
 Leave Link  502 at Mon Sep 16 13:46:35 2024, MaxMem=   104857600 cpu:               0.1 elap:               0.1
 (Enter /usr/local/g16/l601.exe)
 Copying SCF densities to generalized density rwf, IOpCl= 1 IROHF=0.

 **********************************************************************

            Population analysis using the SCF density.

 **********************************************************************

 Orbital symmetries:
 Alpha Orbitals:
       Occupied  (A) (A) (A) (A) (A) (A) (A) (A) (A) (A) (A) (A)
                 (A)
       Virtual   (A) (A) (A) (A) (A) (A) (A) (A) (A) (A) (A) (A)
                 (A) (A) (A) (A) (A) (A) (A) (A) (A) (A) (A) (A)
                 (A) (A) (A) (A) (A) (A) (A) (A) (A) (A) (A) (A)
                 (A) (A) (A) (A) (A)
 Beta  Orbitals:
       Occupied  (A) (A) (A) (A) (A) (A) (A) (A) (A) (A) (A) (A)
       Virtual   (A) (A) (A) (A) (A) (A) (A) (A) (A) (A) (A) (A)
                 (A) (A) (A) (A) (A) (A) (A) (A) (A) (A) (A) (A)
                 (A) (A) (A) (A) (A) (A) (A) (A) (A) (A) (A) (A)
                 (A) (A) (A) (A) (A) (A)
 The electronic state is 2-A.
 Alpha  occ. eigenvalues --  -20.61148 -11.28968 -11.22096  -1.38759  -1.02430
 Alpha  occ. eigenvalues --   -0.85827  -0.70628  -0.64164  -0.59109  -0.58282
 Alpha  occ. eigenvalues --   -0.54263  -0.50717  -0.46691
 Alpha virt. eigenvalues --    0.15364   0.19428   0.19947   0.22504   0.24874
 Alpha virt. eigenvalues --    0.30177   0.36139   0.45494   0.45536   0.52073
 Alpha virt. eigenvalues --    0.53676   0.66882   0.72332   0.78022   0.78105
 Alpha virt. eigenvalues --    0.81257   0.81491   0.82471   0.95745   1.01221
 Alpha virt. eigenvalues --    1.06970   1.09330   1.15821   1.68049   2.54688
 Alpha virt. eigenvalues --    2.56519   2.58858   2.59176   2.60690   3.13540
 Alpha virt. eigenvalues --    3.20356   3.21405   3.24354   3.41597   3.43131
 Alpha virt. eigenvalues --    5.28428   5.36666   5.38779  24.47016  24.64115
 Alpha virt. eigenvalues --   51.45028
  Beta  occ. eigenvalues --  -20.57043 -11.29288 -11.22092  -1.25405  -1.00689
  Beta  occ. eigenvalues --   -0.84317  -0.64723  -0.61964  -0.56659  -0.52514
  Beta  occ. eigenvalues --   -0.52505  -0.43312
  Beta virt. eigenvalues --    0.12290   0.15433   0.19466   0.20030   0.22523
  Beta virt. eigenvalues --    0.25884   0.31676   0.36079   0.45540   0.45676
  Beta virt. eigenvalues --    0.52417   0.57911   0.67626   0.72937   0.78009
  Beta virt. eigenvalues --    0.78019   0.81280   0.81551   0.82373   0.96283
  Beta virt. eigenvalues --    1.02451   1.10765   1.17381   1.21541   1.72107
  Beta virt. eigenvalues --    2.55294   2.57026   2.59026   2.59284   2.60719
  Beta virt. eigenvalues --    3.13332   3.20200   3.21454   3.24355   3.41707
  Beta virt. eigenvalues --    3.43138   5.39313   5.41661   5.42042  24.46843
  Beta virt. eigenvalues --   24.64044  51.47389
          Condensed to atoms (all electrons):
               1          2          3          4          5          6
     1  C    5.141968   0.385433   0.385408   0.199413  -0.045112  -0.045134
     2  H    0.385433   0.535345  -0.026376  -0.059641   0.006806  -0.004056
     3  H    0.385408  -0.026376   0.535387  -0.059636  -0.004092   0.006809
     4  C    0.199413  -0.059641  -0.059636   5.349546   0.384389   0.384388
     5  H   -0.045112   0.006806  -0.004092   0.384389   0.528514  -0.027300
     6  H   -0.045134  -0.004056   0.006809   0.384388  -0.027300   0.528405
     7  H   -0.041259   0.000913   0.000938   0.359878  -0.026000  -0.025984
     8  O    0.105196  -0.030413  -0.030427  -0.067466   0.003079   0.003080
               7          8
     1  C   -0.041259   0.105196
     2  H    0.000913  -0.030413
     3  H    0.000938  -0.030427
     4  C    0.359878  -0.067466
     5  H   -0.026000   0.003079
     6  H   -0.025984   0.003080
     7  H    0.564957   0.004924
     8  O    0.004924   8.340367
          Atomic-Atomic Spin Densities.
               1          2          3          4          5          6
     1  C   -0.154074   0.005090   0.005087   0.023333   0.000028   0.000031
     2  H    0.005090   0.073928  -0.013421   0.002114   0.000917  -0.002163
     3  H    0.005087  -0.013421   0.073905   0.002122  -0.002166   0.000916
     4  C    0.023333   0.002114   0.002122  -0.008990  -0.001642  -0.001639
     5  H    0.000028   0.000917  -0.002166  -0.001642   0.002415  -0.001773
     6  H    0.000031  -0.002163   0.000916  -0.001639  -0.001773   0.002403
     7  H    0.000223  -0.000047  -0.000047   0.003476   0.000157   0.000158
     8  O   -0.034821  -0.008871  -0.008872  -0.008160   0.001123   0.001119
               7          8
     1  C    0.000223  -0.034821
     2  H   -0.000047  -0.008871
     3  H   -0.000047  -0.008872
     4  C    0.003476  -0.008160
     5  H    0.000157   0.001123
     6  H    0.000158   0.001119
     7  H   -0.008020  -0.000490
     8  O   -0.000490   1.094866
 Mulliken charges and spin densities:
               1          2
     1  C   -0.085912  -0.155103
     2  H    0.191990   0.057548
     3  H    0.191989   0.057524
     4  C   -0.490870   0.010614
     5  H    0.179716  -0.000941
     6  H    0.179792  -0.000947
     7  H    0.161633  -0.004591
     8  O   -0.328339   1.035895
 Sum of Mulliken charges =  -0.00000   1.00000
 Mulliken charges and spin densities with hydrogens summed into heavy atoms:
               1          2
     1  C    0.298067  -0.040031
     4  C    0.030272   0.004136
     8  O   -0.328339   1.035895
 Electronic spatial extent (au):  <R**2>=            182.2673
 Charge=              0.0000 electrons
 Dipole moment (field-independent basis, Debye):
    X=              1.7870    Y=              1.5016    Z=             -0.0001  Tot=              2.3341
 Quadrupole moment (field-independent basis, Debye-Ang):
   XX=            -22.6843   YY=            -19.2344   ZZ=            -17.9726
   XY=             -1.1067   XZ=             -0.0001   YZ=              0.0001
 Traceless Quadrupole moment (field-independent basis, Debye-Ang):
   XX=             -2.7205   YY=              0.7294   ZZ=              1.9912
   XY=             -1.1067   XZ=             -0.0001   YZ=              0.0001
 Octapole moment (field-independent basis, Debye-Ang**2):
  XXX=              0.2753  YYY=              0.5766  ZZZ=              0.0029  XYY=             -0.6679
  XXY=              1.4351  XXZ=             -0.0009  XZZ=             -2.4358  YZZ=             -0.2436
  YYZ=             -0.0024  XYZ=             -0.0008
 Hexadecapole moment (field-independent basis, Debye-Ang**3):
 XXXX=           -155.5806 YYYY=            -52.9641 ZZZZ=            -29.2574 XXXY=              1.9498
 XXXZ=             -0.0029 YYYX=              1.3457 YYYZ=              0.0033 ZZZX=              0.0045
 ZZZY=             -0.0011 XXYY=            -33.6071 XXZZ=            -28.7210 YYZZ=            -12.1017
 XXYZ=             -0.0033 YYXZ=             -0.0027 ZZXY=              0.0087
 N-N= 7.381706154049D+01 E-N=-5.081809249300D+02  KE= 1.536044776898D+02
                          Isotropic Fermi Contact Couplings
        Atom                 a.u.       MegaHertz       Gauss      10(-4) cm-1
     1  C(13)             -0.06049     -68.00183     -24.26474     -22.68297
     2  H(1)               0.02104      94.05397      33.56079      31.37303
     3  H(1)               0.02103      94.01040      33.54525      31.35850
     4  C(13)             -0.00183      -2.05597      -0.73362      -0.68580
     5  H(1)              -0.00065      -2.89901      -1.03444      -0.96701
     6  H(1)              -0.00065      -2.90526      -1.03667      -0.96909
     7  H(1)              -0.00148      -6.60084      -2.35534      -2.20180
     8  O(17)              0.14564     -88.28393     -31.50190     -29.44835
 --------------------------------------------------------
       Center         ----  Spin Dipole Couplings  ----
                      3XX-RR        3YY-RR        3ZZ-RR
 --------------------------------------------------------
     1   Atom        0.008243     -0.003937     -0.004306
     2   Atom        0.001786      0.010580     -0.012366
     3   Atom        0.001786      0.010580     -0.012365
     4   Atom        0.016546     -0.007581     -0.008965
     5   Atom        0.011702     -0.006865     -0.004837
     6   Atom        0.011723     -0.006873     -0.004850
     7   Atom        0.006069     -0.002749     -0.003320
     8   Atom       -1.795760     -1.810831      3.606590
 --------------------------------------------------------
                        XY            XZ            YZ
 --------------------------------------------------------
     1   Atom        0.010213      0.000000      0.000000
     2   Atom        0.016982     -0.009487     -0.005785
     3   Atom        0.016982      0.009487      0.005786
     4   Atom        0.001895     -0.000006     -0.000000
     5   Atom       -0.003047      0.005269     -0.000687
     6   Atom       -0.003076     -0.005268      0.000695
     7   Atom        0.002652     -0.000005     -0.000003
     8   Atom        0.075733      0.000361     -0.000670
 --------------------------------------------------------


 ---------------------------------------------------------------------------------
              Anisotropic Spin Dipole Couplings in Principal Axis System
 ---------------------------------------------------------------------------------

       Atom             a.u.   MegaHertz   Gauss  10(-4) cm-1        Axes

              Baa    -0.0097    -1.307    -0.466    -0.436 -0.4939  0.8695  0.0000
     1 C(13)  Bbb    -0.0043    -0.578    -0.206    -0.193 -0.0000 -0.0000  1.0000
              Bcc     0.0140     1.884     0.672     0.629  0.8695  0.4939  0.0000
 
              Baa    -0.0175    -9.350    -3.336    -3.119  0.5450 -0.1599  0.8230
     2 H(1)   Bbb    -0.0090    -4.803    -1.714    -1.602 -0.5728  0.6459  0.5048
              Bcc     0.0265    14.153     5.050     4.721  0.6123  0.7465 -0.2604
 
              Baa    -0.0175    -9.350    -3.336    -3.119 -0.5450  0.1599  0.8231
     3 H(1)   Bbb    -0.0090    -4.803    -1.714    -1.602 -0.5728  0.6459 -0.5047
              Bcc     0.0265    14.153     5.050     4.721  0.6123  0.7465  0.2604
 
              Baa    -0.0090    -1.203    -0.429    -0.401  0.0003 -0.0003  1.0000
     4 C(13)  Bbb    -0.0077    -1.037    -0.370    -0.346 -0.0778  0.9970  0.0003
              Bcc     0.0167     2.240     0.799     0.747  0.9970  0.0778 -0.0002
 
              Baa    -0.0074    -3.934    -1.404    -1.312  0.1935  0.9712 -0.1389
     5 H(1)   Bbb    -0.0063    -3.381    -1.206    -1.128 -0.2466  0.1852  0.9513
              Bcc     0.0137     7.315     2.610     2.440  0.9496 -0.1498  0.2753
 
              Baa    -0.0074    -3.942    -1.407    -1.315  0.1940  0.9714  0.1368
     6 H(1)   Bbb    -0.0063    -3.387    -1.208    -1.130  0.2463 -0.1833  0.9517
              Bcc     0.0137     7.329     2.615     2.445  0.9496 -0.1510 -0.2748
 
              Baa    -0.0035    -1.859    -0.664    -0.620 -0.2674  0.9636  0.0068
     7 H(1)   Bbb    -0.0033    -1.771    -0.632    -0.591  0.0024 -0.0064  1.0000
              Bcc     0.0068     3.631     1.296     1.211  0.9636  0.2674 -0.0006
 
              Baa    -1.8794   135.992    48.525    45.362 -0.6712  0.7413  0.0001
     8 O(17)  Bbb    -1.7272   124.978    44.595    41.688  0.7413  0.6712  0.0000
              Bcc     3.6066  -260.970   -93.121   -87.050  0.0001 -0.0001  1.0000
 

 ---------------------------------------------------------------------------------

 No NMR shielding tensors so no spin-rotation constants.
 Leave Link  601 at Mon Sep 16 13:46:35 2024, MaxMem=   104857600 cpu:               0.1 elap:               0.1
 (Enter /usr/local/g16/l701.exe)
 ... and contract with generalized density number  0.
 Compute integral first derivatives.
 Leave Link  701 at Mon Sep 16 13:46:35 2024, MaxMem=   104857600 cpu:               0.0 elap:               0.1
 (Enter /usr/local/g16/l702.exe)
 L702 exits ... SP integral derivatives will be done elsewhere.
 Leave Link  702 at Mon Sep 16 13:46:35 2024, MaxMem=   104857600 cpu:               0.0 elap:               0.0
 (Enter /usr/local/g16/l703.exe)
 Integral derivatives from FoFJK, PRISM(SPDF).
 Compute integral first derivatives, UseDBF=F ICtDFT=           0.
 Calling FoFJK, ICntrl=      2127 FMM=F ISym2X=0 I1Cent= 0 IOpClX= 1 NMat=1 NMatS=1 NMatT=0.
 FoFJK:  IHMeth= 1 ICntrl=    2127 DoSepK=F KAlg= 0 I1Cent=           0 FoldK=F
 IRaf=         0 NMat=       1 IRICut=       1 DoRegI=T DoRafI=F ISym2E= 0 IDoP0=0 IntGTp=1.
 FoFCou: FMM=F IPFlag=           0 FMFlag=      100000 FMFlg1=         800
         NFxFlg=           0 DoJE=F BraDBF=F KetDBF=F FulRan=T
         wScrn=  0.000000 ICntrl=      2127 IOpCl=  1 I1Cent=           0 NGrid=           0
         NMat0=    1 NMatS0=      1 NMatT0=    0 NMatD0=    1 NMtDS0=    0 NMtDT0=    0
 Symmetry not used in FoFCou.
 Leave Link  703 at Mon Sep 16 13:46:35 2024, MaxMem=   104857600 cpu:               0.2 elap:               0.2
 (Enter /usr/local/g16/l716.exe)
 Dipole        = 7.03045603D-01 5.90756544D-01-2.02061387D-05
 ***** Axes restored to original set *****
 -------------------------------------------------------------------
 Center     Atomic                   Forces (Hartrees/Bohr)
 Number     Number              X              Y              Z
 -------------------------------------------------------------------
      1        6           0.001728542    0.018026417    0.031233308
      2        1          -0.002745147   -0.009274093   -0.005426125
      3        1          -0.002732918   -0.000071761   -0.010743396
      4        6          -0.004990885   -0.011032619   -0.019123838
      5        1          -0.001608262    0.007160683    0.002187561
      6        1          -0.001619877   -0.001687881    0.007281365
      7        1           0.009321596    0.001669142    0.002901631
      8        8           0.002646951   -0.004789888   -0.008310505
 -------------------------------------------------------------------
 Cartesian Forces:  Max     0.031233308 RMS     0.009949749
 Leave Link  716 at Mon Sep 16 13:46:35 2024, MaxMem=   104857600 cpu:               0.0 elap:               0.0
 (Enter /usr/local/g16/l103.exe)

 GradGradGradGradGradGradGradGradGradGradGradGradGradGradGradGradGradGrad
 Berny optimization.
 FormGI is forming the generalized inverse of G from B-inverse, IUseBI=4.
 Internal  Forces:  Max     0.014995951 RMS     0.006003595
 Search for a local minimum.
 Step number   1 out of a maximum of   38
 All quantities printed in internal units (Hartrees-Bohrs-Radians)
 RMS Force = .60036D-02 SwitMx=.10000D-02 MixMth= 1
 Mixed Optimization -- RFO/linear search
 Second derivative matrix not updated -- first step.
 ITU=  0
     Eigenvalues ---    0.00237   0.05720   0.05720   0.05720   0.05976
     Eigenvalues ---    0.16000   0.16000   0.16000   0.16000   0.16000
     Eigenvalues ---    0.22461   0.28519   0.37230   0.37230   0.37230
     Eigenvalues ---    0.37230   0.37230   0.40989
 RFO step:  Lambda=-4.40830241D-03 EMin= 2.36824151D-03
 Linear search not attempted -- first point.
 Iteration  1 RMS(Cart)=  0.03381139 RMS(Int)=  0.00117185
 Iteration  2 RMS(Cart)=  0.00096527 RMS(Int)=  0.00059380
 Iteration  3 RMS(Cart)=  0.00000038 RMS(Int)=  0.00059380
 ITry= 1 IFail=0 DXMaxC= 9.01D-02 DCOld= 1.00D+10 DXMaxT= 3.00D-01 DXLimC= 3.00D+00 Rises=F
 Variable       Old X    -DE/DX   Delta X   Delta X   Delta X     New X
                                 (Linear)    (Quad)   (Total)
    R1        2.02201   0.00783   0.00000   0.02078   0.02078   2.04279
    R2        2.02201   0.00783   0.00000   0.02078   0.02078   2.04278
    R3        2.91018  -0.00698   0.00000  -0.02410  -0.02410   2.88607
    R4        2.70231  -0.00265   0.00000  -0.00639  -0.00639   2.69592
    R5        2.02201   0.00729   0.00000   0.01934   0.01934   2.04135
    R6        2.02201   0.00728   0.00000   0.01933   0.01933   2.04134
    R7        2.02201   0.00932   0.00000   0.02474   0.02474   2.04675
    A1        1.91063  -0.00635   0.00000  -0.03161  -0.03295   1.87768
    A2        1.91063   0.00660   0.00000   0.04619   0.04482   1.95545
    A3        1.91063  -0.01092   0.00000  -0.06146  -0.06259   1.84804
    A4        1.91063   0.00660   0.00000   0.04618   0.04481   1.95544
    A5        1.91063  -0.01093   0.00000  -0.06147  -0.06261   1.84803
    A6        1.91063   0.01500   0.00000   0.06217   0.06093   1.97156
    A7        1.91063   0.00206   0.00000   0.01157   0.01145   1.92209
    A8        1.91063   0.00203   0.00000   0.01140   0.01128   1.92191
    A9        1.91063   0.00399   0.00000   0.02618   0.02596   1.93660
   A10        1.91063  -0.00252   0.00000  -0.01916  -0.01918   1.89145
   A11        1.91063  -0.00279   0.00000  -0.01500  -0.01521   1.89542
   A12        1.91063  -0.00278   0.00000  -0.01498  -0.01519   1.89545
    D1        3.13965   0.00045   0.00000   0.01442   0.01453  -3.12900
    D2       -1.04914  -0.00013   0.00000   0.00502   0.00502  -1.04412
    D3        1.04526   0.00016   0.00000   0.00968   0.00973   1.05499
    D4        1.04526   0.00014   0.00000  -0.00343  -0.00343   1.04182
    D5        3.13965  -0.00044   0.00000  -0.01284  -0.01294   3.12671
    D6       -1.04914  -0.00015   0.00000  -0.00817  -0.00823  -1.05736
    D7       -1.04914   0.00030   0.00000   0.00551   0.00556  -1.04358
    D8        1.04526  -0.00028   0.00000  -0.00390  -0.00395   1.04131
    D9        3.13965   0.00000   0.00000   0.00076   0.00076   3.14042
         Item               Value     Threshold  Converged?
 Maximum Force            0.014996     0.000450     NO 
 RMS     Force            0.006004     0.000300     NO 
 Maximum Displacement     0.090147     0.001800     NO 
 RMS     Displacement     0.033843     0.001200     NO 
 Predicted change in Energy=-2.258915D-03
 Lowest energy point so far.  Saving SCF results.
 GradGradGradGradGradGradGradGradGradGradGradGradGradGradGradGradGradGrad

 Leave Link  103 at Mon Sep 16 13:46:35 2024, MaxMem=   104857600 cpu:               0.0 elap:               0.0
 (Enter /usr/local/g16/l202.exe)
                          Input orientation:                          
 ---------------------------------------------------------------------
 Center     Atomic      Atomic             Coordinates (Angstroms)
 Number     Number       Type             X           Y           Z
 ---------------------------------------------------------------------
      1          6           0       -1.188850    0.003461    0.018554
      2          1           0       -0.863451   -1.026647   -0.020810
      3          1           0       -0.862878    0.483969   -0.893260
      4          6           0       -0.669035    0.721530    1.262196
      5          1           0       -1.022061    1.742348    1.276826
      6          1           0       -1.024609    0.225495    2.153493
      7          1           0        0.413873    0.730205    1.280323
      8          8           0       -2.613430   -0.034251   -0.047704
 ---------------------------------------------------------------------
                    Distance matrix (angstroms):
                    1          2          3          4          5
     1  C    0.000000
     2  H    1.080997   0.000000
     3  H    1.080995   1.744457   0.000000
     4  C    1.527245   2.177160   2.177154   0.000000
     5  H    2.152857   3.062082   2.513589   1.080236   0.000000
     6  H    2.152728   2.514244   3.061971   1.080229   1.751968
     7  H    2.165395   2.532001   2.532822   1.083094   1.756801
     8  O    1.426619   2.011964   2.011952   2.463273   2.728212
                    6          7          8
     6  H    0.000000
     7  H    1.756812   0.000000
     8  O    2.727102   3.393024   0.000000
 Stoichiometry    C2H5O(2)
 Framework group  C1[X(C2H5O)]
 Deg. of freedom    18
 Full point group                 C1      NOp   1
 RotChk:  IX=0 Diff= 3.14D-02
 Largest Abelian subgroup         C1      NOp   1
 Largest concise Abelian subgroup C1      NOp   1
                         Standard orientation:                         
 ---------------------------------------------------------------------
 Center     Atomic      Atomic             Coordinates (Angstroms)
 Number     Number       Type             X           Y           Z
 ---------------------------------------------------------------------
      1          6           0       -0.155456    0.518731    0.000008
      2          1           0       -0.276017    1.145835   -0.872208
      3          1           0       -0.276021    1.145796    0.872248
      4          6           0        1.186039   -0.211246    0.000001
      5          1           0        1.268636   -0.837167    0.876533
      6          1           0        1.267516   -0.838836   -0.875434
      7          1           0        2.009774    0.491999   -0.001180
      8          8           0       -1.272173   -0.369067   -0.000001
 ---------------------------------------------------------------------
 Rotational constants (GHZ):          38.1884375           9.4775895           8.3676105
 Leave Link  202 at Mon Sep 16 13:46:35 2024, MaxMem=   104857600 cpu:               0.0 elap:               0.0
 (Enter /usr/local/g16/l301.exe)
 Standard basis: 6-311G (5D, 7F)
 Ernie: Thresh=  0.10000D-02 Tol=  0.10000D-05 Strict=F.
 There are    54 symmetry adapted cartesian basis functions of A   symmetry.
 There are    54 symmetry adapted basis functions of A   symmetry.
    54 basis functions,   103 primitive gaussians,    54 cartesian basis functions
    13 alpha electrons       12 beta electrons
       nuclear repulsion energy        73.5594457831 Hartrees.
 IExCor=    0 DFT=F Ex=HF Corr=None ExCW=0 ScaHFX=  1.000000
 ScaDFX=  1.000000  1.000000  1.000000  1.000000 ScalE2=  1.000000  1.000000
 IRadAn=      5 IRanWt=     -1 IRanGd=            0 ICorTp=0 IEmpDi=  4
 NAtoms=    8 NActive=    8 NUniq=    8 SFac= 1.00D+00 NAtFMM=   60 NAOKFM=F Big=F
 Integral buffers will be    131072 words long.
 Raffenetti 2 integral format.
 Two-electron integral symmetry is turned on.
 Leave Link  301 at Mon Sep 16 13:46:36 2024, MaxMem=   104857600 cpu:               0.0 elap:               0.0
 (Enter /usr/local/g16/l302.exe)
 NPDir=0 NMtPBC=     1 NCelOv=     1 NCel=       1 NClECP=     1 NCelD=      1
         NCelK=      1 NCelE2=     1 NClLst=     1 CellRange=     0.0.
 One-electron integrals computed using PRISM.
 One-electron integral symmetry used in STVInt
 NBasis=    54 RedAO= T EigKep=  4.64D-03  NBF=    54
 NBsUse=    54 1.00D-06 EigRej= -1.00D+00 NBFU=    54
 Leave Link  302 at Mon Sep 16 13:46:36 2024, MaxMem=   104857600 cpu:               0.1 elap:               0.1
 (Enter /usr/local/g16/l303.exe)
 DipDrv:  MaxL=1.
 Leave Link  303 at Mon Sep 16 13:46:36 2024, MaxMem=   104857600 cpu:               0.0 elap:               0.0
 (Enter /usr/local/g16/l401.exe)
 Initial guess from the checkpoint file:  "ethanol.chk"
 B after Tr=     0.000000   -0.000000    0.000000
         Rot=    0.999991   -0.000112    0.000015   -0.004161 Ang=  -0.48 deg.
 Guess basis will be translated and rotated to current coordinates.
 JPrj=2 DoOrth=T DoCkMO=T.
 Initial guess <Sx>= 0.0000 <Sy>= 0.0000 <Sz>= 0.5000 <S**2>= 0.7572 S= 0.5036
 Generating alternative initial guess.
 ExpMin= 1.03D-01 ExpMax= 8.59D+03 ExpMxC= 1.30D+03 IAcc=2 IRadAn=         4 AccDes= 0.00D+00
 Harris functional with IExCor=  205 and IRadAn=       4 diagonalized for initial guess.
 HarFok:  IExCor=  205 AccDes= 0.00D+00 IRadAn=         4 IDoV= 1 UseB2=F ITyADJ=14
 ICtDFT=  3500011 ScaDFX=  1.000000  1.000000  1.000000  1.000000
 FoFCou: FMM=F IPFlag=           0 FMFlag=      100000 FMFlg1=           0
         NFxFlg=           0 DoJE=T BraDBF=F KetDBF=T FulRan=T
         wScrn=  0.000000 ICntrl=       500 IOpCl=  0 I1Cent=   200000004 NGrid=           0
         NMat0=    1 NMatS0=      1 NMatT0=    0 NMatD0=    1 NMtDS0=    0 NMtDT0=    0
 Petite list used in FoFCou.
 Harris En= -153.629567955443    
 Leave Link  401 at Mon Sep 16 13:46:36 2024, MaxMem=   104857600 cpu:               0.2 elap:               0.2
 (Enter /usr/local/g16/l502.exe)
 Keep R1 and R2 ints in memory in canonical form, NReq=3035120.
 FoFCou: FMM=F IPFlag=           0 FMFlag=           0 FMFlg1=           0
         NFxFlg=           0 DoJE=F BraDBF=F KetDBF=F FulRan=T
         wScrn=  0.000000 ICntrl=       600 IOpCl=  0 I1Cent=           0 NGrid=           0
         NMat0=    1 NMatS0=   1485 NMatT0=    0 NMatD0=    1 NMtDS0=    0 NMtDT0=    0
 Symmetry not used in FoFCou.
 Two-electron integral symmetry not used.
 UHF open shell SCF:
 Using DIIS extrapolation, IDIIS=  1040.
 NGot=   104857600 LenX=   102643909 LenY=   102640552
 Requested convergence on RMS density matrix=1.00D-08 within 128 cycles.
 Requested convergence on MAX density matrix=1.00D-06.
 Requested convergence on             energy=1.00D-06.
 No special actions if energy rises.

 Cycle   1  Pass 1  IDiag  1:
 E= -153.439960088504    
 DIIS: error= 3.01D-03 at cycle   1 NSaved=   1.
 NSaved= 1 IEnMin= 1 EnMin= -153.439960088504     IErMin= 1 ErrMin= 3.01D-03
 ErrMax= 3.01D-03  0.00D+00 EMaxC= 1.00D-01 BMatC= 3.15D-03 BMatP= 3.15D-03
 IDIUse=3 WtCom= 9.70D-01 WtEn= 3.01D-02
 Coeff-Com:  0.100D+01
 Coeff-En:   0.100D+01
 Coeff:      0.100D+01
 Gap=     0.922 Goal=   None    Shift=    0.000
 Gap=     0.884 Goal=   None    Shift=    0.000
 GapD=    0.884 DampG=2.000 DampE=1.000 DampFc=2.0000 IDamp=-1.
 RMSDP=6.79D-04 MaxDP=6.45D-03              OVMax= 1.11D-02

 Cycle   2  Pass 1  IDiag  1:
 E= -153.441058814037     Delta-E=       -0.001098725533 Rises=F Damp=F
 DIIS: error= 1.03D-03 at cycle   2 NSaved=   2.
 NSaved= 2 IEnMin= 2 EnMin= -153.441058814037     IErMin= 2 ErrMin= 1.03D-03
 ErrMax= 1.03D-03  0.00D+00 EMaxC= 1.00D-01 BMatC= 2.11D-04 BMatP= 3.15D-03
 IDIUse=3 WtCom= 9.90D-01 WtEn= 1.03D-02
 Coeff-Com: -0.202D+00 0.120D+01
 Coeff-En:   0.000D+00 0.100D+01
 Coeff:     -0.200D+00 0.120D+01
 Gap=     0.626 Goal=   None    Shift=    0.000
 Gap=     0.564 Goal=   None    Shift=    0.000
 RMSDP=2.41D-04 MaxDP=2.59D-03 DE=-1.10D-03 OVMax= 5.58D-03

 Cycle   3  Pass 1  IDiag  1:
 E= -153.441177983038     Delta-E=       -0.000119169001 Rises=F Damp=F
 DIIS: error= 3.88D-04 at cycle   3 NSaved=   3.
 NSaved= 3 IEnMin= 3 EnMin= -153.441177983038     IErMin= 3 ErrMin= 3.88D-04
 ErrMax= 3.88D-04  0.00D+00 EMaxC= 1.00D-01 BMatC= 2.12D-05 BMatP= 2.11D-04
 IDIUse=3 WtCom= 9.96D-01 WtEn= 3.88D-03
 Coeff-Com: -0.244D-01-0.416D-01 0.107D+01
 Coeff-En:   0.000D+00 0.000D+00 0.100D+01
 Coeff:     -0.243D-01-0.414D-01 0.107D+01
 Gap=     0.626 Goal=   None    Shift=    0.000
 Gap=     0.563 Goal=   None    Shift=    0.000
 RMSDP=7.04D-05 MaxDP=7.23D-04 DE=-1.19D-04 OVMax= 1.97D-03

 Cycle   4  Pass 1  IDiag  1:
 E= -153.441190148240     Delta-E=       -0.000012165202 Rises=F Damp=F
 DIIS: error= 1.57D-04 at cycle   4 NSaved=   4.
 NSaved= 4 IEnMin= 4 EnMin= -153.441190148240     IErMin= 4 ErrMin= 1.57D-04
 ErrMax= 1.57D-04  0.00D+00 EMaxC= 1.00D-01 BMatC= 3.79D-06 BMatP= 2.12D-05
 IDIUse=3 WtCom= 9.98D-01 WtEn= 1.57D-03
 Coeff-Com:  0.283D-01-0.185D+00 0.797D-01 0.108D+01
 Coeff-En:   0.000D+00 0.000D+00 0.000D+00 0.100D+01
 Coeff:      0.283D-01-0.185D+00 0.795D-01 0.108D+01
 Gap=     0.626 Goal=   None    Shift=    0.000
 Gap=     0.564 Goal=   None    Shift=    0.000
 RMSDP=3.66D-05 MaxDP=3.80D-04 DE=-1.22D-05 OVMax= 1.13D-03

 Cycle   5  Pass 1  IDiag  1:
 E= -153.441192492883     Delta-E=       -0.000002344643 Rises=F Damp=F
 DIIS: error= 4.87D-05 at cycle   5 NSaved=   5.
 NSaved= 5 IEnMin= 5 EnMin= -153.441192492883     IErMin= 5 ErrMin= 4.87D-05
 ErrMax= 4.87D-05  0.00D+00 EMaxC= 1.00D-01 BMatC= 2.85D-07 BMatP= 3.79D-06
 IDIUse=1 WtCom= 1.00D+00 WtEn= 0.00D+00
 Coeff-Com:  0.171D-03 0.167D-01-0.900D-01-0.105D+00 0.118D+01
 Coeff:      0.171D-03 0.167D-01-0.900D-01-0.105D+00 0.118D+01
 Gap=     0.626 Goal=   None    Shift=    0.000
 Gap=     0.563 Goal=   None    Shift=    0.000
 RMSDP=1.20D-05 MaxDP=1.23D-04 DE=-2.34D-06 OVMax= 3.83D-04

 Cycle   6  Pass 1  IDiag  1:
 E= -153.441192688674     Delta-E=       -0.000000195791 Rises=F Damp=F
 DIIS: error= 1.47D-05 at cycle   6 NSaved=   6.
 NSaved= 6 IEnMin= 6 EnMin= -153.441192688674     IErMin= 6 ErrMin= 1.47D-05
 ErrMax= 1.47D-05  0.00D+00 EMaxC= 1.00D-01 BMatC= 3.74D-08 BMatP= 2.85D-07
 IDIUse=1 WtCom= 1.00D+00 WtEn= 0.00D+00
 Coeff-Com: -0.331D-02 0.247D-01-0.262D-01-0.141D+00 0.205D+00 0.941D+00
 Coeff:     -0.331D-02 0.247D-01-0.262D-01-0.141D+00 0.205D+00 0.941D+00
 Gap=     0.626 Goal=   None    Shift=    0.000
 Gap=     0.563 Goal=   None    Shift=    0.000
 RMSDP=3.55D-06 MaxDP=3.66D-05 DE=-1.96D-07 OVMax= 1.11D-04

 Cycle   7  Pass 1  IDiag  1:
 E= -153.441192707836     Delta-E=       -0.000000019161 Rises=F Damp=F
 DIIS: error= 4.06D-06 at cycle   7 NSaved=   7.
 NSaved= 7 IEnMin= 7 EnMin= -153.441192707836     IErMin= 7 ErrMin= 4.06D-06
 ErrMax= 4.06D-06  0.00D+00 EMaxC= 1.00D-01 BMatC= 4.13D-09 BMatP= 3.74D-08
 IDIUse=1 WtCom= 1.00D+00 WtEn= 0.00D+00
 Coeff-Com:  0.111D-02-0.974D-02 0.167D-01 0.572D-01-0.177D+00-0.292D+00
 Coeff-Com:  0.140D+01
 Coeff:      0.111D-02-0.974D-02 0.167D-01 0.572D-01-0.177D+00-0.292D+00
 Coeff:      0.140D+01
 Gap=     0.626 Goal=   None    Shift=    0.000
 Gap=     0.563 Goal=   None    Shift=    0.000
 RMSDP=1.59D-06 MaxDP=1.58D-05 DE=-1.92D-08 OVMax= 4.08D-05

 Cycle   8  Pass 1  IDiag  1:
 E= -153.441192711462     Delta-E=       -0.000000003626 Rises=F Damp=F
 DIIS: error= 1.73D-06 at cycle   8 NSaved=   8.
 NSaved= 8 IEnMin= 8 EnMin= -153.441192711462     IErMin= 8 ErrMin= 1.73D-06
 ErrMax= 1.73D-06  0.00D+00 EMaxC= 1.00D-01 BMatC= 7.16D-10 BMatP= 4.13D-09
 IDIUse=1 WtCom= 1.00D+00 WtEn= 0.00D+00
 Coeff-Com:  0.636D-04 0.456D-04-0.254D-02-0.119D-02 0.402D-01-0.336D-01
 Coeff-Com: -0.531D+00 0.153D+01
 Coeff:      0.636D-04 0.456D-04-0.254D-02-0.119D-02 0.402D-01-0.336D-01
 Coeff:     -0.531D+00 0.153D+01
 Gap=     0.626 Goal=   None    Shift=    0.000
 Gap=     0.563 Goal=   None    Shift=    0.000
 RMSDP=7.54D-07 MaxDP=6.89D-06 DE=-3.63D-09 OVMax= 1.62D-05

 Cycle   9  Pass 1  IDiag  1:
 E= -153.441192712205     Delta-E=       -0.000000000743 Rises=F Damp=F
 DIIS: error= 7.88D-07 at cycle   9 NSaved=   9.
 NSaved= 9 IEnMin= 9 EnMin= -153.441192712205     IErMin= 9 ErrMin= 7.88D-07
 ErrMax= 7.88D-07  0.00D+00 EMaxC= 1.00D-01 BMatC= 9.21D-11 BMatP= 7.16D-10
 IDIUse=1 WtCom= 1.00D+00 WtEn= 0.00D+00
 Coeff-Com: -0.172D-03 0.153D-02-0.268D-02-0.896D-02 0.289D-01 0.436D-01
 Coeff-Com: -0.241D+00 0.710D-01 0.111D+01
 Coeff:     -0.172D-03 0.153D-02-0.268D-02-0.896D-02 0.289D-01 0.436D-01
 Coeff:     -0.241D+00 0.710D-01 0.111D+01
 Gap=     0.626 Goal=   None    Shift=    0.000
 Gap=     0.563 Goal=   None    Shift=    0.000
 RMSDP=2.42D-07 MaxDP=2.47D-06 DE=-7.43D-10 OVMax= 5.08D-06

 Cycle  10  Pass 1  IDiag  1:
 E= -153.441192712291     Delta-E=       -0.000000000086 Rises=F Damp=F
 DIIS: error= 3.60D-07 at cycle  10 NSaved=  10.
 NSaved=10 IEnMin=10 EnMin= -153.441192712291     IErMin=10 ErrMin= 3.60D-07
 ErrMax= 3.60D-07  0.00D+00 EMaxC= 1.00D-01 BMatC= 1.72D-11 BMatP= 9.21D-11
 IDIUse=1 WtCom= 1.00D+00 WtEn= 0.00D+00
 Coeff-Com:  0.529D-04-0.558D-03 0.132D-02 0.339D-02-0.160D-01-0.107D-01
 Coeff-Com:  0.160D+00-0.248D+00-0.352D+00 0.146D+01
 Coeff:      0.529D-04-0.558D-03 0.132D-02 0.339D-02-0.160D-01-0.107D-01
 Coeff:      0.160D+00-0.248D+00-0.352D+00 0.146D+01
 Gap=     0.626 Goal=   None    Shift=    0.000
 Gap=     0.563 Goal=   None    Shift=    0.000
 RMSDP=1.02D-07 MaxDP=1.21D-06 DE=-8.64D-11 OVMax= 2.14D-06

 Cycle  11  Pass 1  IDiag  1:
 E= -153.441192712312     Delta-E=       -0.000000000021 Rises=F Damp=F
 DIIS: error= 2.74D-07 at cycle  11 NSaved=  11.
 NSaved=11 IEnMin=11 EnMin= -153.441192712312     IErMin=11 ErrMin= 2.74D-07
 ErrMax= 2.74D-07  0.00D+00 EMaxC= 1.00D-01 BMatC= 5.22D-12 BMatP= 1.72D-11
 IDIUse=1 WtCom= 1.00D+00 WtEn= 0.00D+00
 Coeff-Com: -0.292D-04 0.359D-03-0.100D-02-0.225D-02 0.132D-01 0.359D-02
 Coeff-Com: -0.139D+00 0.275D+00 0.186D+00-0.165D+01 0.231D+01
 Coeff:     -0.292D-04 0.359D-03-0.100D-02-0.225D-02 0.132D-01 0.359D-02
 Coeff:     -0.139D+00 0.275D+00 0.186D+00-0.165D+01 0.231D+01
 Gap=     0.626 Goal=   None    Shift=    0.000
 Gap=     0.563 Goal=   None    Shift=    0.000
 RMSDP=7.22D-08 MaxDP=7.71D-07 DE=-2.08D-11 OVMax= 3.13D-06

 Cycle  12  Pass 1  IDiag  1:
 E= -153.441192712323     Delta-E=       -0.000000000011 Rises=F Damp=F
 DIIS: error= 2.60D-07 at cycle  12 NSaved=  12.
 NSaved=12 IEnMin=12 EnMin= -153.441192712323     IErMin=12 ErrMin= 2.60D-07
 ErrMax= 2.60D-07  0.00D+00 EMaxC= 1.00D-01 BMatC= 1.69D-12 BMatP= 5.22D-12
 IDIUse=1 WtCom= 1.00D+00 WtEn= 0.00D+00
 Coeff-Com:  0.774D-05-0.104D-03 0.306D-03 0.674D-03-0.438D-02-0.966D-04
 Coeff-Com:  0.460D-01-0.101D+00-0.404D-01 0.608D+00-0.113D+01 0.163D+01
 Coeff:      0.774D-05-0.104D-03 0.306D-03 0.674D-03-0.438D-02-0.966D-04
 Coeff:      0.460D-01-0.101D+00-0.404D-01 0.608D+00-0.113D+01 0.163D+01
 Gap=     0.626 Goal=   None    Shift=    0.000
 Gap=     0.563 Goal=   None    Shift=    0.000
 RMSDP=3.17D-08 MaxDP=4.98D-07 DE=-1.10D-11 OVMax= 2.24D-06

 Cycle  13  Pass 1  IDiag  1:
 E= -153.441192712327     Delta-E=       -0.000000000005 Rises=F Damp=F
 DIIS: error= 2.53D-07 at cycle  13 NSaved=  13.
 NSaved=13 IEnMin=13 EnMin= -153.441192712327     IErMin=13 ErrMin= 2.53D-07
 ErrMax= 2.53D-07  0.00D+00 EMaxC= 1.00D-01 BMatC= 1.40D-12 BMatP= 1.69D-12
 IDIUse=1 WtCom= 1.00D+00 WtEn= 0.00D+00
 Coeff-Com: -0.382D-05 0.546D-04-0.165D-03-0.362D-03 0.249D-02-0.316D-03
 Coeff-Com: -0.257D-01 0.596D-01 0.156D-01-0.362D+00 0.759D+00-0.146D+01
 Coeff-Com:  0.201D+01
 Coeff:     -0.382D-05 0.546D-04-0.165D-03-0.362D-03 0.249D-02-0.316D-03
 Coeff:     -0.257D-01 0.596D-01 0.156D-01-0.362D+00 0.759D+00-0.146D+01
 Coeff:      0.201D+01
 Gap=     0.626 Goal=   None    Shift=    0.000
 Gap=     0.563 Goal=   None    Shift=    0.000
 RMSDP=3.03D-08 MaxDP=5.13D-07 DE=-4.58D-12 OVMax= 2.52D-06

 Cycle  14  Pass 1  IDiag  1:
 E= -153.441192712332     Delta-E=       -0.000000000004 Rises=F Damp=F
 DIIS: error= 2.48D-07 at cycle  14 NSaved=  14.
 NSaved=14 IEnMin=14 EnMin= -153.441192712332     IErMin=14 ErrMin= 2.48D-07
 ErrMax= 2.48D-07  0.00D+00 EMaxC= 1.00D-01 BMatC= 1.33D-12 BMatP= 1.40D-12
 IDIUse=1 WtCom= 1.00D+00 WtEn= 0.00D+00
 Coeff-Com:  0.286D-05-0.449D-04 0.142D-03 0.304D-03-0.226D-02 0.709D-03
 Coeff-Com:  0.224D-01-0.554D-01-0.734D-02 0.340D+00-0.790D+00 0.185D+01
 Coeff-Com: -0.386D+01 0.350D+01
 Coeff:      0.286D-05-0.449D-04 0.142D-03 0.304D-03-0.226D-02 0.709D-03
 Coeff:      0.224D-01-0.554D-01-0.734D-02 0.340D+00-0.790D+00 0.185D+01
 Coeff:     -0.386D+01 0.350D+01
 Gap=     0.626 Goal=   None    Shift=    0.000
 Gap=     0.563 Goal=   None    Shift=    0.000
 RMSDP=6.36D-08 MaxDP=1.06D-06 DE=-4.23D-12 OVMax= 5.36D-06

 Cycle  15  Pass 1  IDiag  1:
 E= -153.441192712341     Delta-E=       -0.000000000009 Rises=F Damp=F
 DIIS: error= 2.40D-07 at cycle  15 NSaved=  15.
 NSaved=15 IEnMin=15 EnMin= -153.441192712341     IErMin=15 ErrMin= 2.40D-07
 ErrMax= 2.40D-07  0.00D+00 EMaxC= 1.00D-01 BMatC= 1.27D-12 BMatP= 1.33D-12
 IDIUse=1 WtCom= 1.00D+00 WtEn= 0.00D+00
 Large coefficients: NSaved= 15 BigCof=   10.74 CofMax=   10.00 Det=-3.73D-16
 Inversion failed.  Reducing to 14 matrices.
 Large coefficients: NSaved= 14 BigCof=   10.12 CofMax=   10.00 Det=-4.16D-16
 Inversion failed.  Reducing to 13 matrices.
 Coeff-Com: -0.123D-04-0.120D-04 0.642D-03-0.166D-02-0.408D-02 0.224D-01
 Coeff-Com: -0.222D-01-0.149D+00 0.594D+00-0.219D+01 0.640D+01-0.806D+01
 Coeff-Com:  0.441D+01
 Coeff:     -0.123D-04-0.120D-04 0.642D-03-0.166D-02-0.408D-02 0.224D-01
 Coeff:     -0.222D-01-0.149D+00 0.594D+00-0.219D+01 0.640D+01-0.806D+01
 Coeff:      0.441D+01
 Gap=     0.626 Goal=   None    Shift=    0.000
 Gap=     0.563 Goal=   None    Shift=    0.000
 RMSDP=1.24D-07 MaxDP=2.01D-06 DE=-8.98D-12 OVMax= 1.05D-05

 Cycle  16  Pass 1  IDiag  1:
 E= -153.441192712358     Delta-E=       -0.000000000017 Rises=F Damp=F
 DIIS: error= 2.27D-07 at cycle  16 NSaved=  14.
 NSaved=14 IEnMin=14 EnMin= -153.441192712358     IErMin=14 ErrMin= 2.27D-07
 ErrMax= 2.27D-07  0.00D+00 EMaxC= 1.00D-01 BMatC= 1.17D-12 BMatP= 1.27D-12
 IDIUse=1 WtCom= 1.00D+00 WtEn= 0.00D+00
 Large coefficients: NSaved= 14 BigCof=   21.37 CofMax=   10.00 Det=-2.05D-16
 Inversion failed.  Reducing to 13 matrices.
 Large coefficients: NSaved= 13 BigCof=   19.69 CofMax=   10.00 Det=-3.52D-16
 Inversion failed.  Reducing to 12 matrices.
 Large coefficients: NSaved= 12 BigCof=   19.74 CofMax=   10.00 Det=-3.56D-16
 Inversion failed.  Reducing to 11 matrices.
 Large coefficients: NSaved= 11 BigCof=   13.69 CofMax=   10.00 Det=-6.94D-16
 Inversion failed.  Reducing to 10 matrices.
 Large coefficients: NSaved= 10 BigCof=   10.36 CofMax=   10.00 Det=-1.06D-15
 Inversion failed.  Reducing to  9 matrices.
 Coeff-Com:  0.141D-02-0.258D-03-0.219D-01 0.340D-01 0.174D+00-0.212D+01
 Coeff-Com:  0.536D+01-0.799D+01 0.556D+01
 Coeff:      0.141D-02-0.258D-03-0.219D-01 0.340D-01 0.174D+00-0.212D+01
 Coeff:      0.536D+01-0.799D+01 0.556D+01
 Gap=     0.626 Goal=   None    Shift=    0.000
 Gap=     0.563 Goal=   None    Shift=    0.000
 RMSDP=4.10D-07 MaxDP=6.59D-06 DE=-1.70D-11 OVMax= 3.48D-05

 Cycle  17  Pass 1  IDiag  1:
 E= -153.441192712408     Delta-E=       -0.000000000051 Rises=F Damp=F
 DIIS: error= 1.88D-07 at cycle  17 NSaved=  10.
 NSaved=10 IEnMin=10 EnMin= -153.441192712408     IErMin=10 ErrMin= 1.88D-07
 ErrMax= 1.88D-07  0.00D+00 EMaxC= 1.00D-01 BMatC= 8.87D-13 BMatP= 1.17D-12
 IDIUse=1 WtCom= 1.00D+00 WtEn= 0.00D+00
 Coeff-Com: -0.125D-01 0.281D-01 0.108D+00-0.556D+00 0.211D+01-0.493D+01
 Coeff-Com:  0.349D+01 0.433D+01-0.803D+01 0.446D+01
 Coeff:     -0.125D-01 0.281D-01 0.108D+00-0.556D+00 0.211D+01-0.493D+01
 Coeff:      0.349D+01 0.433D+01-0.803D+01 0.446D+01
 Gap=     0.626 Goal=   None    Shift=    0.000
 Gap=     0.563 Goal=   None    Shift=    0.000
 RMSDP=9.09D-07 MaxDP=1.45D-05 DE=-5.08D-11 OVMax= 7.70D-05

 Cycle  18  Pass 1  IDiag  1:
 E= -153.441192712489     Delta-E=       -0.000000000081 Rises=F Damp=F
 DIIS: error= 1.08D-07 at cycle  18 NSaved=  11.
 NSaved=11 IEnMin=11 EnMin= -153.441192712489     IErMin=11 ErrMin= 1.08D-07
 ErrMax= 1.08D-07  0.00D+00 EMaxC= 1.00D-01 BMatC= 3.94D-13 BMatP= 8.87D-13
 IDIUse=1 WtCom= 1.00D+00 WtEn= 0.00D+00
 Coeff-Com:  0.135D-01-0.342D-01-0.951D-01 0.559D+00-0.238D+01 0.740D+01
 Coeff-Com: -0.959D+01 0.504D+01 0.794D+00-0.337D+01 0.266D+01
 Coeff:      0.135D-01-0.342D-01-0.951D-01 0.559D+00-0.238D+01 0.740D+01
 Coeff:     -0.959D+01 0.504D+01 0.794D+00-0.337D+01 0.266D+01
 Gap=     0.626 Goal=   None    Shift=    0.000
 Gap=     0.563 Goal=   None    Shift=    0.000
 RMSDP=8.38D-07 MaxDP=1.33D-05 DE=-8.07D-11 OVMax= 7.10D-05

 Cycle  19  Pass 1  IDiag  1:
 E= -153.441192712526     Delta-E=       -0.000000000037 Rises=F Damp=F
 DIIS: error= 3.49D-08 at cycle  19 NSaved=  12.
 NSaved=12 IEnMin=12 EnMin= -153.441192712526     IErMin=12 ErrMin= 3.49D-08
 ErrMax= 3.49D-08  0.00D+00 EMaxC= 1.00D-01 BMatC= 8.68D-14 BMatP= 3.94D-13
 IDIUse=1 WtCom= 1.00D+00 WtEn= 0.00D+00
 Coeff-Com:  0.166D-02-0.342D-02-0.220D-01 0.108D+00-0.352D+00 0.311D+00
 Coeff-Com:  0.840D+00-0.282D+01 0.278D+01-0.780D+00-0.700D+00 0.164D+01
 Coeff:      0.166D-02-0.342D-02-0.220D-01 0.108D+00-0.352D+00 0.311D+00
 Coeff:      0.840D+00-0.282D+01 0.278D+01-0.780D+00-0.700D+00 0.164D+01
 Gap=     0.626 Goal=   None    Shift=    0.000
 Gap=     0.563 Goal=   None    Shift=    0.000
 RMSDP=3.15D-07 MaxDP=4.98D-06 DE=-3.68D-11 OVMax= 2.66D-05

 Cycle  20  Pass 1  IDiag  1:
 E= -153.441192712530     Delta-E=       -0.000000000004 Rises=F Damp=F
 DIIS: error= 1.12D-08 at cycle  20 NSaved=  13.
 NSaved=13 IEnMin=13 EnMin= -153.441192712530     IErMin=13 ErrMin= 1.12D-08
 ErrMax= 1.12D-08  0.00D+00 EMaxC= 1.00D-01 BMatC= 1.42D-14 BMatP= 8.68D-14
 IDIUse=1 WtCom= 1.00D+00 WtEn= 0.00D+00
 Coeff-Com: -0.458D-02 0.120D-01 0.342D-01-0.201D+00 0.836D+00-0.245D+01
 Coeff-Com:  0.304D+01-0.158D+01-0.102D+00 0.845D+00-0.700D+00 0.221D-01
 Coeff-Com:  0.125D+01
 Coeff:     -0.458D-02 0.120D-01 0.342D-01-0.201D+00 0.836D+00-0.245D+01
 Coeff:      0.304D+01-0.158D+01-0.102D+00 0.845D+00-0.700D+00 0.221D-01
 Coeff:      0.125D+01
 Gap=     0.626 Goal=   None    Shift=    0.000
 Gap=     0.563 Goal=   None    Shift=    0.000
 RMSDP=8.45D-08 MaxDP=1.33D-06 DE=-4.04D-12 OVMax= 7.15D-06

 Cycle  21  Pass 1  IDiag  1:
 E= -153.441192712530     Delta-E=       -0.000000000000 Rises=F Damp=F
 DIIS: error= 4.39D-09 at cycle  21 NSaved=  14.
 NSaved=14 IEnMin=14 EnMin= -153.441192712530     IErMin=14 ErrMin= 4.39D-09
 ErrMax= 4.39D-09  0.00D+00 EMaxC= 1.00D-01 BMatC= 1.62D-15 BMatP= 1.42D-14
 IDIUse=1 WtCom= 1.00D+00 WtEn= 0.00D+00
 Coeff-Com:  0.208D-02-0.549D-02-0.147D-01 0.885D-01-0.377D+00 0.116D+01
 Coeff-Com: -0.156D+01 0.108D+01-0.287D+00-0.293D+00 0.408D+00-0.220D+00
 Coeff-Com: -0.568D+00 0.158D+01
 Coeff:      0.208D-02-0.549D-02-0.147D-01 0.885D-01-0.377D+00 0.116D+01
 Coeff:     -0.156D+01 0.108D+01-0.287D+00-0.293D+00 0.408D+00-0.220D+00
 Coeff:     -0.568D+00 0.158D+01
 Gap=     0.626 Goal=   None    Shift=    0.000
 Gap=     0.563 Goal=   None    Shift=    0.000
 RMSDP=1.10D-08 MaxDP=1.72D-07 DE=-2.27D-13 OVMax= 9.30D-07

 Cycle  22  Pass 1  IDiag  1:
 E= -153.441192712530     Delta-E=       -0.000000000000 Rises=F Damp=F
 DIIS: error= 1.41D-09 at cycle  22 NSaved=  15.
 NSaved=15 IEnMin=15 EnMin= -153.441192712530     IErMin=15 ErrMin= 1.41D-09
 ErrMax= 1.41D-09  0.00D+00 EMaxC= 1.00D-01 BMatC= 2.16D-16 BMatP= 1.62D-15
 IDIUse=1 WtCom= 1.00D+00 WtEn= 0.00D+00
 Coeff-Com: -0.952D-03 0.249D-02 0.665D-02-0.404D-01 0.173D+00-0.537D+00
 Coeff-Com:  0.742D+00-0.563D+00 0.199D+00 0.112D+00-0.204D+00 0.153D+00
 Coeff-Com:  0.242D+00-0.110D+01 0.182D+01
 Coeff:     -0.952D-03 0.249D-02 0.665D-02-0.404D-01 0.173D+00-0.537D+00
 Coeff:      0.742D+00-0.563D+00 0.199D+00 0.112D+00-0.204D+00 0.153D+00
 Coeff:      0.242D+00-0.110D+01 0.182D+01
 Gap=     0.626 Goal=   None    Shift=    0.000
 Gap=     0.563 Goal=   None    Shift=    0.000
 RMSDP=1.41D-09 MaxDP=2.08D-08 DE=-5.68D-14 OVMax= 1.14D-07

 SCF Done:  E(UHF) =  -153.441192713     A.U. after   22 cycles
            NFock= 22  Conv=0.14D-08     -V/T= 1.9993
 <Sx>= 0.0000 <Sy>= 0.0000 <Sz>= 0.5000 <S**2>= 0.7574 S= 0.5037
 <L.S>= 0.000000000000E+00
 KE= 1.535424655069D+02 PE=-5.076112887565D+02 EE= 1.270681847541D+02
 Annihilation of the first spin contaminant:
 S**2 before annihilation     0.7574,   after     0.7500
 Leave Link  502 at Mon Sep 16 13:46:36 2024, MaxMem=   104857600 cpu:               0.2 elap:               0.2
 (Enter /usr/local/g16/l701.exe)
 ... and contract with generalized density number  0.
 Compute integral first derivatives.
 Leave Link  701 at Mon Sep 16 13:46:36 2024, MaxMem=   104857600 cpu:               0.1 elap:               0.1
 (Enter /usr/local/g16/l702.exe)
 L702 exits ... SP integral derivatives will be done elsewhere.
 Leave Link  702 at Mon Sep 16 13:46:36 2024, MaxMem=   104857600 cpu:               0.0 elap:               0.0
 (Enter /usr/local/g16/l703.exe)
 Integral derivatives from FoFJK, PRISM(SPDF).
 Compute integral first derivatives, UseDBF=F ICtDFT=           0.
 Calling FoFJK, ICntrl=      2127 FMM=F ISym2X=0 I1Cent= 0 IOpClX= 1 NMat=1 NMatS=1 NMatT=0.
 FoFJK:  IHMeth= 1 ICntrl=    2127 DoSepK=F KAlg= 0 I1Cent=           0 FoldK=F
 IRaf=         0 NMat=       1 IRICut=       1 DoRegI=T DoRafI=F ISym2E= 0 IDoP0=0 IntGTp=1.
 FoFCou: FMM=F IPFlag=           0 FMFlag=      100000 FMFlg1=         800
         NFxFlg=           0 DoJE=F BraDBF=F KetDBF=F FulRan=T
         wScrn=  0.000000 ICntrl=      2127 IOpCl=  1 I1Cent=           0 NGrid=           0
         NMat0=    1 NMatS0=      1 NMatT0=    0 NMatD0=    1 NMtDS0=    0 NMtDT0=    0
 Symmetry not used in FoFCou.
 Leave Link  703 at Mon Sep 16 13:46:36 2024, MaxMem=   104857600 cpu:               0.2 elap:               0.2
 (Enter /usr/local/g16/l716.exe)
 Dipole        = 7.31972744D-01 5.64309612D-01-7.13556810D-06
 ***** Axes restored to original set *****
 -------------------------------------------------------------------
 Center     Atomic                   Forces (Hartrees/Bohr)
 Number     Number              X              Y              Z
 -------------------------------------------------------------------
      1        6           0.000770262    0.002829718    0.004886500
      2        1           0.001832909   -0.000737666   -0.000125695
      3        1           0.001839215    0.000252467   -0.000704838
      4        6          -0.003796755   -0.003846762   -0.006657201
      5        1           0.000278398    0.000594867    0.000650548
      6        1           0.000287477    0.000263977    0.000850162
      7        1          -0.000515269   -0.000198066   -0.000350190
      8        8          -0.000696237    0.000841465    0.001450713
 -------------------------------------------------------------------
 Cartesian Forces:  Max     0.006657201 RMS     0.002229788
 Leave Link  716 at Mon Sep 16 13:46:36 2024, MaxMem=   104857600 cpu:               0.0 elap:               0.0
 (Enter /usr/local/g16/l103.exe)

 GradGradGradGradGradGradGradGradGradGradGradGradGradGradGradGradGradGrad
 Berny optimization.
 Using GEDIIS/GDIIS optimizer.
 FormGI is forming the generalized inverse of G from B-inverse, IUseBI=4.
 Internal  Forces:  Max     0.007257121 RMS     0.001649554
 Search for a local minimum.
 Step number   2 out of a maximum of   38
 All quantities printed in internal units (Hartrees-Bohrs-Radians)
 RMS Force = .16496D-02 SwitMx=.10000D-02 MixMth= 1
 Mixed Optimization -- RFO/linear search
 Update second derivatives using D2CorX and points    1    2
 DE= -2.07D-03 DEPred=-2.26D-03 R= 9.17D-01
 TightC=F SS=  1.41D+00  RLast= 1.48D-01 DXNew= 5.0454D-01 4.4381D-01
 Trust test= 9.17D-01 RLast= 1.48D-01 DXMaxT set to 4.44D-01
 ITU=  1  0
 Use linear search instead of GDIIS.
     Eigenvalues ---    0.00237   0.05181   0.05494   0.05547   0.05647
     Eigenvalues ---    0.15160   0.16000   0.16000   0.16000   0.16762
     Eigenvalues ---    0.22940   0.29191   0.36571   0.37230   0.37230
     Eigenvalues ---    0.37230   0.37855   0.41126
 RFO step:  Lambda=-2.86009264D-04 EMin= 2.36824682D-03
 Quartic linear search produced a step of -0.04579.
 Iteration  1 RMS(Cart)=  0.00847103 RMS(Int)=  0.00003840
 Iteration  2 RMS(Cart)=  0.00002902 RMS(Int)=  0.00002781
 Iteration  3 RMS(Cart)=  0.00000000 RMS(Int)=  0.00002781
 ITry= 1 IFail=0 DXMaxC= 2.00D-02 DCOld= 1.00D+10 DXMaxT= 4.44D-01 DXLimC= 3.00D+00 Rises=F
 Variable       Old X    -DE/DX   Delta X   Delta X   Delta X     New X
                                 (Linear)    (Quad)   (Total)
    R1        2.04279   0.00126  -0.00095   0.00555   0.00460   2.04738
    R2        2.04278   0.00126  -0.00095   0.00555   0.00460   2.04739
    R3        2.88607  -0.00726   0.00110  -0.02694  -0.02584   2.86024
    R4        2.69592   0.00061   0.00029   0.00069   0.00099   2.69691
    R5        2.04135   0.00048  -0.00089   0.00339   0.00251   2.04386
    R6        2.04134   0.00049  -0.00089   0.00340   0.00252   2.04386
    R7        2.04675  -0.00052  -0.00113   0.00143   0.00030   2.04705
    A1        1.87768  -0.00008   0.00151  -0.01017  -0.00864   1.86905
    A2        1.95545  -0.00042  -0.00205   0.00006  -0.00195   1.95350
    A3        1.84804   0.00189   0.00287   0.00596   0.00887   1.85691
    A4        1.95544  -0.00042  -0.00205   0.00010  -0.00191   1.95354
    A5        1.84803   0.00189   0.00287   0.00596   0.00887   1.85690
    A6        1.97156  -0.00255  -0.00279  -0.00176  -0.00449   1.96707
    A7        1.92209   0.00110  -0.00052   0.00849   0.00795   1.93004
    A8        1.92191   0.00111  -0.00052   0.00857   0.00804   1.92995
    A9        1.93660  -0.00102  -0.00119  -0.00468  -0.00585   1.93075
   A10        1.89145  -0.00079   0.00088  -0.00396  -0.00314   1.88831
   A11        1.89542  -0.00021   0.00070  -0.00438  -0.00366   1.89177
   A12        1.89545  -0.00021   0.00070  -0.00439  -0.00367   1.89178
    D1       -3.12900  -0.00055  -0.00067  -0.00848  -0.00916  -3.13816
    D2       -1.04412  -0.00015  -0.00023  -0.00266  -0.00287  -1.04698
    D3        1.05499  -0.00035  -0.00045  -0.00555  -0.00599   1.04900
    D4        1.04182   0.00015   0.00016   0.00458   0.00471   1.04654
    D5        3.12671   0.00056   0.00059   0.01040   0.01101   3.13772
    D6       -1.05736   0.00036   0.00038   0.00751   0.00788  -1.04948
    D7       -1.04358  -0.00020  -0.00025  -0.00196  -0.00224  -1.04582
    D8        1.04131   0.00020   0.00018   0.00385   0.00405   1.04536
    D9        3.14042   0.00000  -0.00003   0.00096   0.00093   3.14134
         Item               Value     Threshold  Converged?
 Maximum Force            0.007257     0.000450     NO 
 RMS     Force            0.001650     0.000300     NO 
 Maximum Displacement     0.019995     0.001800     NO 
 RMS     Displacement     0.008475     0.001200     NO 
 Predicted change in Energy=-1.479024D-04
 Lowest energy point so far.  Saving SCF results.
 GradGradGradGradGradGradGradGradGradGradGradGradGradGradGradGradGradGrad

 Leave Link  103 at Mon Sep 16 13:46:36 2024, MaxMem=   104857600 cpu:               0.0 elap:               0.0
 (Enter /usr/local/g16/l202.exe)
                          Input orientation:                          
 ---------------------------------------------------------------------
 Center     Atomic      Atomic             Coordinates (Angstroms)
 Number     Number       Type             X           Y           Z
 ---------------------------------------------------------------------
      1          6           0       -1.188814    0.005842    0.022716
      2          1           0       -0.855452   -1.024231   -0.017758
      3          1           0       -0.854207    0.484837   -0.889656
      4          6           0       -0.675853    0.717887    1.255909
      5          1           0       -1.023792    1.741754    1.276148
      6          1           0       -1.025476    0.224653    2.152714
[...]
               26            27            28 
     26  0.112741D-01
     27 -0.101960D-02  0.112743D-01
     28 -0.130340D-02 -0.130327D-02  0.107996D-01
 Leave Link  716 at Mon Sep 16 13:46:40 2024, MaxMem=   104857600 cpu:               0.0 elap:               0.0
 (Enter /usr/local/g16/l103.exe)

 GradGradGradGradGradGradGradGradGradGradGradGradGradGradGradGradGradGrad
 Berny optimization.
 Red2BG is reusing G-inverse.
 Internal  Forces:  Max     0.000115064 RMS     0.000040901
 Search for a local minimum.
 Step number   1 out of a maximum of    2
 All quantities printed in internal units (Hartrees-Bohrs-Radians)
 Second derivative matrix not updated -- analytic derivatives used.
 ITU=  0
     Eigenvalues ---    0.00242   0.01113   0.05237   0.05367   0.05649
     Eigenvalues ---    0.14124   0.14212   0.14884   0.16951   0.20270
     Eigenvalues ---    0.25574   0.33338   0.35377   0.35763   0.36480
     Eigenvalues ---    0.36598   0.37336   0.38127
 Angle between quadratic step and forces=  35.83 degrees.
 Linear search not attempted -- first point.
 Iteration  1 RMS(Cart)=  0.00024111 RMS(Int)=  0.00000003
 Iteration  2 RMS(Cart)=  0.00000003 RMS(Int)=  0.00000001
 ITry= 1 IFail=0 DXMaxC= 5.74D-04 DCOld= 1.00D+10 DXMaxT= 3.00D-01 DXLimC= 3.00D+00 Rises=F
 Variable       Old X    -DE/DX   Delta X   Delta X   Delta X     New X
                                 (Linear)    (Quad)   (Total)
    R1        2.04667  -0.00004   0.00000  -0.00011  -0.00011   2.04656
    R2        2.04667  -0.00004   0.00000  -0.00012  -0.00012   2.04655
    R3        2.86239  -0.00012   0.00000  -0.00024  -0.00024   2.86215
    R4        2.69689  -0.00010   0.00000  -0.00028  -0.00028   2.69661
    R5        2.04292   0.00001   0.00000   0.00003   0.00003   2.04295
    R6        2.04292   0.00001   0.00000   0.00003   0.00003   2.04295
    R7        2.04632   0.00005   0.00000   0.00010   0.00010   2.04642
    A1        1.86806   0.00005   0.00000   0.00041   0.00041   1.86847
    A2        1.95344  -0.00003   0.00000  -0.00015  -0.00015   1.95329
    A3        1.85738  -0.00001   0.00000  -0.00011  -0.00011   1.85727
    A4        1.95346  -0.00003   0.00000  -0.00016  -0.00016   1.95330
    A5        1.85737  -0.00001   0.00000  -0.00005  -0.00005   1.85732
    A6        1.96725   0.00003   0.00000   0.00008   0.00008   1.96733
    A7        1.93200  -0.00005   0.00000  -0.00029  -0.00029   1.93172
    A8        1.93199  -0.00005   0.00000  -0.00027  -0.00027   1.93171
    A9        1.93229   0.00000   0.00000   0.00001   0.00001   1.93230
   A10        1.88647   0.00005   0.00000   0.00022   0.00022   1.88669
   A11        1.88980   0.00003   0.00000   0.00018   0.00018   1.88998
   A12        1.88980   0.00003   0.00000   0.00018   0.00018   1.88998
    D1       -3.13868   0.00001   0.00000   0.00011   0.00011  -3.13857
    D2       -1.04719   0.00001   0.00000   0.00002   0.00002  -1.04717
    D3        1.04865   0.00001   0.00000   0.00007   0.00007   1.04873
    D4        1.04739  -0.00001   0.00000  -0.00020  -0.00020   1.04719
    D5        3.13888  -0.00001   0.00000  -0.00029  -0.00029   3.13859
    D6       -1.04846  -0.00001   0.00000  -0.00024  -0.00024  -1.04870
    D7       -1.04565   0.00000   0.00000  -0.00008  -0.00008  -1.04573
    D8        1.04584  -0.00000   0.00000  -0.00017  -0.00017   1.04567
    D9       -3.14150  -0.00000   0.00000  -0.00012  -0.00012   3.14157
         Item               Value     Threshold  Converged?
 Maximum Force            0.000115     0.000450     YES
 RMS     Force            0.000041     0.000300     YES
 Maximum Displacement     0.000574     0.001800     YES
 RMS     Displacement     0.000241     0.001200     YES
 Predicted change in Energy=-8.504779D-08
 Optimization completed.
    -- Stationary point found.
                           ----------------------------
                           !   Optimized Parameters   !
                           ! (Angstroms and Degrees)  !
 --------------------------                            --------------------------
 ! Name  Definition              Value          Derivative Info.                !
 --------------------------------------------------------------------------------
 ! R1    R(1,2)                  1.0831         -DE/DX =    0.0                 !
 ! R2    R(1,3)                  1.0831         -DE/DX =    0.0                 !
 ! R3    R(1,4)                  1.5147         -DE/DX =   -0.0001              !
 ! R4    R(1,8)                  1.4271         -DE/DX =   -0.0001              !
 ! R5    R(4,5)                  1.0811         -DE/DX =    0.0                 !
 ! R6    R(4,6)                  1.0811         -DE/DX =    0.0                 !
 ! R7    R(4,7)                  1.0829         -DE/DX =    0.0                 !
 ! A1    A(2,1,3)              107.0318         -DE/DX =    0.0001              !
 ! A2    A(2,1,4)              111.9239         -DE/DX =    0.0                 !
 ! A3    A(2,1,8)              106.4199         -DE/DX =    0.0                 !
 ! A4    A(3,1,4)              111.925          -DE/DX =    0.0                 !
 ! A5    A(3,1,8)              106.4197         -DE/DX =    0.0                 !
 ! A6    A(4,1,8)              112.7149         -DE/DX =    0.0                 !
 ! A7    A(1,4,5)              110.6957         -DE/DX =   -0.0001              !
 ! A8    A(1,4,6)              110.6947         -DE/DX =   -0.0001              !
 ! A9    A(1,4,7)              110.712          -DE/DX =    0.0                 !
 ! A10   A(5,4,6)              108.087          -DE/DX =    0.0                 !
 ! A11   A(5,4,7)              108.2775         -DE/DX =    0.0                 !
 ! A12   A(6,4,7)              108.2777         -DE/DX =    0.0                 !
 ! D1    D(2,1,4,5)           -179.833          -DE/DX =    0.0                 !
 ! D2    D(2,1,4,6)            -59.9996         -DE/DX =    0.0                 !
 ! D3    D(2,1,4,7)             60.0835         -DE/DX =    0.0                 !
 ! D4    D(3,1,4,5)             60.0112         -DE/DX =    0.0                 !
 ! D5    D(3,1,4,6)            179.8446         -DE/DX =    0.0                 !
 ! D6    D(3,1,4,7)            -60.0723         -DE/DX =    0.0                 !
 ! D7    D(8,1,4,5)            -59.9112         -DE/DX =    0.0                 !
 ! D8    D(8,1,4,6)             59.9223         -DE/DX =    0.0                 !
 ! D9    D(8,1,4,7)            180.0053         -DE/DX =    0.0                 !
 --------------------------------------------------------------------------------
 GradGradGradGradGradGradGradGradGradGradGradGradGradGradGradGradGradGrad

 Leave Link  103 at Mon Sep 16 13:46:40 2024, MaxMem=   104857600 cpu:               0.0 elap:               0.0
 (Enter /usr/local/g16/l9999.exe)

 ----------------------------------------------------------------------

 Electric dipole moment (input orientation):
 (Debye = 10**-18 statcoulomb cm , SI units = C m)
                  (au)            (Debye)         (10**-30 SI)
   Tot        0.927319D+00      0.235701D+01      0.786214D+01
   x          0.925315D+00      0.235192D+01      0.784515D+01
   y          0.297863D-01      0.757093D-01      0.252539D+00
   z          0.531532D-01      0.135102D+00      0.450652D+00

 Dipole polarizability, Alpha (input orientation).
 (esu units = cm**3 , SI units = C**2 m**2 J**-1)
 Alpha(0;0):
               (au)            (10**-24 esu)      (10**-40 SI)
   iso        0.243346D+02      0.360602D+01      0.401224D+01
   aniso      0.205785D+01      0.304943D+00      0.339294D+00
   xx         0.254054D+02      0.376469D+01      0.418878D+01
   yx         0.300887D+00      0.445868D-01      0.496095D-01
   yy         0.240152D+02      0.355868D+01      0.395957D+01
   zx         0.522802D+00      0.774712D-01      0.861984D-01
   zy        -0.375893D+00     -0.557016D-01     -0.619764D-01
   zz         0.235834D+02      0.349470D+01      0.388838D+01

 First dipole hyperpolarizability, Beta (input orientation).
 ||, _|_  parallel and perpendicular components, (z) with respect to z axis,
 vector components x,y,z.  Values do not include the 1/n! factor of 1/2.
 (esu units = statvolt**-1 cm**4 , SI units = C**3 m**3 J**-2)
 Beta(0;0,0):
               (au)            (10**-30 esu)      (10**-50 SI)
   || (z)    -0.102842D+02     -0.888477D-01     -0.329749D-01
   _|_(z)    -0.342807D+01     -0.296159D-01     -0.109916D-01
   x          0.224303D+03      0.193780D+01      0.719197D+00
   y         -0.299302D+02     -0.258574D+00     -0.959671D-01
   z         -0.514211D+02     -0.444238D+00     -0.164875D+00
   ||         0.464120D+02      0.400963D+00      0.148814D+00
   xxx        0.720427D+02      0.622393D+00      0.230995D+00
   xxy        0.515936D+01      0.445729D-01      0.165428D-01
   yxy       -0.372660D+01     -0.321949D-01     -0.119488D-01
   yyy       -0.423415D+02     -0.365797D+00     -0.135762D+00
   xxz        0.907126D+01      0.783686D-01      0.290857D-01
   yxz        0.874876D+01      0.755825D-01      0.280517D-01
   yyz       -0.651561D+01     -0.562898D-01     -0.208914D-01
   zxz        0.645161D+01      0.557369D-01      0.206862D-01
   zyz        0.272054D+02      0.235033D+00      0.872303D-01
   zzz       -0.196960D+02     -0.170158D+00     -0.631525D-01

 ----------------------------------------------------------------------

 Dipole orientation:
     6         -0.17241703          0.07680672         -2.24021940
     1          0.00005923         -1.88353683         -1.67792621
     1          1.55687096          1.01610686         -1.67795038
     6         -2.48372442          1.31771797         -1.09511095
     1         -2.62223229          3.26888889         -1.68438999
     1         -4.18653522          0.35488914         -1.68409801
     1         -2.39338009          1.26942844          0.94864075
     8         -0.20835948          0.09608712         -4.93680315

 Electric dipole moment (dipole orientation):
 (Debye = 10**-18 statcoulomb cm , SI units = C m)
                  (au)            (Debye)         (10**-30 SI)
   Tot        0.927319D+00      0.235701D+01      0.786214D+01
   x          0.000000D+00      0.000000D+00      0.000000D+00
   y          0.000000D+00      0.000000D+00      0.000000D+00
   z          0.927319D+00      0.235701D+01      0.786214D+01

 Dipole polarizability, Alpha (dipole orientation).
 (esu units = cm**3 , SI units = C**2 m**2 J**-1)
 Alpha(0;0):
               (au)            (10**-24 esu)      (10**-40 SI)
   iso        0.243346D+02      0.360602D+01      0.401224D+01
   aniso      0.205785D+01      0.304943D+00      0.339294D+00
   xx         0.235054D+02      0.348314D+01      0.387551D+01
   yx         0.390688D+00      0.578939D-01      0.644157D-01
   yy         0.240229D+02      0.355983D+01      0.396085D+01
   zx        -0.409073D+00     -0.606183D-01     -0.674470D-01
   zy         0.219592D+00      0.325402D-01      0.362059D-01
   zz         0.254757D+02      0.377510D+01      0.420037D+01

 First dipole hyperpolarizability, Beta (dipole orientation).
 ||, _|_  parallel and perpendicular components, (z) with respect to z axis,
 vector components x,y,z.  Values do not include the 1/n! factor of 1/2.
 (esu units = statvolt**-1 cm**4 , SI units = C**3 m**3 J**-2)
 Beta(0;0,0):
               (au)            (10**-30 esu)      (10**-50 SI)
   || (z)     0.439819D+02      0.379969D+00      0.141022D+00
   _|_(z)     0.146606D+02      0.126656D+00      0.470073D-01
   x          0.652930D+02      0.564081D+00      0.209353D+00
   y         -0.350488D+02     -0.302794D+00     -0.112379D+00
   z          0.219910D+03      0.189985D+01      0.705109D+00
   ||         0.464120D+02      0.400963D+00      0.148814D+00
   xxx        0.182601D+02      0.157753D+00      0.585483D-01
   xxy        0.260585D+02      0.225125D+00      0.835530D-01
   yxy        0.975679D+01      0.842910D-01      0.312838D-01
   yyy       -0.411061D+02     -0.355125D+00     -0.131801D+00
   xxz        0.585899D+01      0.506171D-01      0.187860D-01
   yxz       -0.920107D+01     -0.794900D-01     -0.295019D-01
   yyz       -0.633133D+01     -0.546978D-01     -0.203005D-01
   zxz       -0.625250D+01     -0.540167D-01     -0.200478D-01
   zyz        0.336469D+01      0.290683D-01      0.107884D-01
   zzz        0.737755D+02      0.637363D+00      0.236551D+00

 ----------------------------------------------------------------------
 1\1\GINC-SV1-C724\Freq\UHF\6-311G\C2H5O1(2)\LME\16-Sep-2024\0\\#P Geom
 =AllCheck Guess=TCheck SCRF=Check GenChk UHF/6-311G Freq\\Title Card R
 equired\\0,2\C,-1.1894621763,0.0052920416,0.0217860546\H,-0.8557850816
 ,-1.0242739065,-0.0189104785\H,-0.854287131,0.4836802153,-0.890247387\
 C,-0.676012523,0.7178540752,1.2558750868\H,-1.0227440482,1.7415672175,
 1.2779725454\H,-1.024101384,0.22614833,2.1535171984\H,0.4067188198,0.7
 256150308,1.2709821953\O,-2.6147672758,-0.0297741996,-0.0413557117\\Ve
 rsion=ES64L-G16RevA.03\State=2-A\HF=-153.4413363\S2=0.757441\S2-1=0.\S
 2A=0.75004\RMSD=2.163e-09\RMSF=3.533e-05\ZeroPoint=0.0701976\Thermal=0
 .0742105\Dipole=0.9253154,0.0297863,0.0531532\DipoleDeriv=0.4816413,0.
 0790714,0.1374682,0.0684652,0.2135371,0.1648681,0.1190792,0.164887,0.4
 037965,0.0041487,0.099718,-0.0652756,0.0406922,-0.1132357,-0.0697194,-
 0.0396569,-0.0409903,0.0660629,0.0038444,-0.1062832,0.0540331,-0.05464
 42,0.0694701,0.0640592,0.0156101,0.035348,-0.1163534,0.0947009,-0.0152
 071,-0.0265654,-0.0423708,0.1458086,-0.1199686,-0.0735205,-0.1199184,0
 .007448,0.0514122,0.0794531,0.0000601,0.0582687,-0.1581809,-0.0293119,
 -0.0268024,0.0054466,0.0457998,0.0512051,-0.0397484,0.069129,-0.052460
 6,0.0053563,0.0995387,0.0373166,0.0648176,-0.1175469,-0.1981655,-0.011
 431,-0.0202031,0.0079847,0.0603257,-0.0079363,0.013411,-0.007959,0.051
 1408,-0.488787,-0.0855728,-0.1486462,-0.025935,-0.2230813,-0.1015299,-
 0.0454371,-0.1016316,-0.3403477\Polar=25.4053685,0.3008867,24.0151782,
 0.5228018,-0.3758931,23.5833996\PolarDeriv=3.7910823,0.7846382,-7.2210
 895,1.3931477,2.0033628,-4.8915061,0.3760488,-6.8238666,-9.8477366,2.6
 742818,-2.4935098,5.1948258,0.6852889,2.6756362,-1.545344,-3.7235956,4
 .6437473,-6.5590115,1.405152,-2.2815789,8.1432118,-0.7274584,1.2922618
 ,-3.1843436,-1.353346,2.9899505,-7.5847789,-0.6396012,-0.2316709,-2.18
 00918,0.0473933,-0.3027883,0.2863678,1.3702895,-3.3904815,1.3683662,1.
 4127364,0.512785,-1.4725922,-2.3531973,-4.2519761,6.4430679,0.7225238,
 2.1891898,5.1505671,-0.7688272,-2.1687544,1.1440421,-1.1545933,-1.1057
 299,-0.8683159,2.1835525,1.302804,-6.7545952,-5.7688198,-0.1156693,0.3
 911028,-0.2147068,1.8452288,2.5201612,0.1994343,3.7802631,-1.9410323,-
 0.6197816,-0.2681241,2.831951,0.3230243,-0.6188576,1.0499047,3.0698824
 ,2.0714249,0.5102163,-0.6467254,2.1778388,-1.9352231,0.3244028,-0.5326
 355,-0.526609,0.8736075,-1.5929021,8.4347649,0.0020115,0.9175898,0.509
 3474,-0.214573,0.0571456,0.0114213,-1.1239207,1.5961725,0.3848531,-0.6
 534821,-0.8085729,-0.4181605,2.0517811,0.3437196,-2.0503461,-0.6251648
 ,-1.2688261,-1.785468,0.2471674,2.3141672,-2.3313592,0.6519065,0.19150
 98,0.92085,-1.4564836,-2.0902153,7.0206965,9.6565734,0.5801992,-0.0942
 934,1.0175644,0.4671036,0.4453337,0.1988052,1.7000411,-0.2046304,0.311
 9696,0.3021375,-0.3673175,0.3544274,0.3115579,-0.7947976,2.0615764,0.2
 653827,-0.1901096,-9.1965168,-0.8496401,2.6070439,-1.4915334,-1.167065
 ,1.2442419,-0.3919087,-0.9738498,7.7783142,-1.2072202,1.6281646,-4.801
 3978,-0.6928741,-1.2084738,0.9399137,-2.381301,-4.3988347,4.2195843\Hy
 perPolar=72.0426723,5.159361,-3.7265976,-42.34149,9.0712564,8.7487585,
 -6.5156118,6.4516094,27.2053922,-19.6960136\Quadrupole=-1.7724614,1.15
 08047,0.6216567,-0.5507221,-0.9585845,-0.4569762\PG=C01 [X(C2H5O1)]\NI
 mag=0\\0.49025825,-0.00724213,0.53520486,-0.01257586,0.03023083,0.5700
 0531,-0.07733858,0.10914494,-0.01782264,0.08308364,0.07380519,-0.29181
 244,-0.01612709,-0.09188285,0.32914720,-0.00239206,-0.01262261,-0.0577
 4644,0.00366443,0.01086246,0.06052687,-0.07763046,-0.07006362,0.085956
 71,0.01984861,0.01101940,-0.01196180,0.08336367,-0.03905033,-0.1035224
 2,0.09565304,-0.01594931,-0.01849499,0.03144972,0.04920615,0.11797050,
 0.06303073,0.09215608,-0.24574872,0.00359273,0.00101841,0.00020917,-0.
 07810379,-0.11061708,0.27142243,-0.10056257,-0.01281985,-0.02222912,0.
 00678201,0.00504228,0.00926108,0.00681678,0.00552111,0.00904777,0.6298
 4289,-0.01859781,-0.11750990,-0.06360665,-0.02077409,-0.01753332,-0.03
 250028,0.01256660,0.00760683,0.01746166,-0.01581350,0.61641607,-0.0322
 2101,-0.06359817,-0.19089340,0.00254556,0.00295753,-0.00103575,-0.0167
 2670,-0.01796418,-0.02620705,-0.02737189,-0.02910501,0.58279059,0.0043
 6912,-0.01820650,-0.00129966,0.00042516,-0.00113364,-0.00269839,-0.000
 85985,0.00093386,0.00065034,-0.08808784,0.08731531,0.00177902,0.089238
 96,0.00781724,-0.01846762,0.00155724,-0.00079755,0.00034461,-0.0031144
 7,-0.00049167,0.00127185,-0.00065626,0.08368868,-0.30633153,-0.0032760
 7,-0.09511232,0.33487700,0.01145000,-0.03664541,-0.00122685,-0.0028987
 1,-0.00285161,-0.00514684,0.00071000,0.00082326,0.00140474,-0.00036243
 ,0.00018224,-0.05916317,0.00085422,0.00486689,0.06188655,0.00439240,0.
 00795976,-0.01642368,-0.00085908,0.00010091,0.00113334,0.00042357,-0.0
 0177043,-0.00233129,-0.08831772,-0.04219217,0.07679823,0.00472451,0.00
 652995,-0.01156438,0.08949563,0.00603816,0.00963411,-0.02040580,0.0008
 6361,0.00129871,0.00083792,-0.00211276,-0.00119000,-0.00373835,-0.0422
 3926,-0.11937180,0.10776967,-0.01333176,-0.01624836,0.03050687,0.04838
 386,0.12564843,0.01254266,0.01775832,-0.02935352,-0.00007351,-0.000639
 85,0.00137865,-0.00214171,-0.00400067,-0.00361025,0.07258244,0.1043164
 2,-0.24589112,-0.00011680,-0.00065393,0.00095065,-0.08226717,-0.115536
 54,0.27085758,-0.01090229,0.00280159,0.00483774,0.00053962,-0.00089117
 ,-0.00011553,0.00053968,0.00034455,-0.00083001,-0.33041507,-0.00215055
 ,-0.00414463,-0.01150583,-0.00083033,0.00027473,-0.01155458,0.00066860
 ,-0.00059357,0.36402309,-0.01888176,-0.00258842,0.00401396,0.00171656,
 0.00054632,0.00087048,-0.00063648,0.00095375,-0.00001252,0.00005742,-0
 .05814874,-0.00190338,0.03762046,0.00200428,0.00043312,-0.01861406,-0.
 00016911,-0.00085938,0.00177507,0.05672776,-0.03268965,0.00404907,0.00
 202808,0.00025362,-0.00024787,0.00144746,0.00161587,0.00110291,0.00104
 191,-0.00032292,-0.00190725,-0.06034899,0.00018510,0.00042117,-0.00043
 085,0.03267271,-0.00087695,0.00179124,0.00355007,0.00255047,0.05967592
 ,-0.23258586,-0.01157421,-0.02044348,-0.03248137,0.00393987,0.00310893
 ,-0.03250201,0.00076440,0.00494353,-0.03605849,-0.00035379,-0.00065858
 ,0.00169577,-0.00080400,0.00153658,0.00169527,0.00172956,0.00006766,-0
 .00072462,-0.00303722,-0.00526480,0.33096131,-0.00388856,-0.01093817,-
 0.03131552,0.01767869,-0.00349608,0.00421679,0.00051238,-0.00459552,0.
 00438806,-0.02343690,-0.00512761,0.00511960,0.00191458,0.00254976,0.00
 268465,-0.00039782,0.00039802,-0.00038437,-0.00171776,0.00067417,-0.00
 509156,0.00933539,0.02053543,-0.00714480,-0.03132813,-0.04706447,0.010
 73852,0.00502802,0.00036687,0.02065142,0.00355300,0.00148777,-0.040604
 92,0.00515887,0.00074888,0.00064616,0.00085543,0.00172575,0.00198224,0
 .00144318,0.00387676,-0.00297879,-0.00509274,-0.00520477,0.01671016,0.
 02038235,0.04406320\\0.00003728,-0.00001015,-0.00001465,0.00003234,-0.
 00003351,-0.00004466,0.00003142,-0.00002298,-0.00005235,0.00000029,0.0
 0002192,0.00003538,0.00002514,-0.00000573,0.00004172,0.00002462,0.0000
 3708,0.00001505,-0.00004577,0.00000770,0.00001210,-0.00010531,0.000005
 68,0.00000741\\\@


 I WANT IT ALL - RICH, THIN, AND CHOCOLATE.
 Job cpu time:       0 days  0 hours  0 minutes  2.1 seconds.
 Elapsed time:       0 days  0 hours  0 minutes  2.0 seconds.
 File lengths (MBytes):  RWF=     10 Int=      0 D2E=      0 Chk=      2 Scr=      1
 Normal termination of Gaussian 16 at Mon Sep 16 13:46:40 2024.
