[Molden Format]
[Molpro variables]
_NUMVAR=  1076.000000000000    
_AVOGAD= 0.6022140760000000E+24
_BOLTZ= 0.1380649000000000E-22
_CLIGHTSI=  299792458.0000000    
_JOULE= 0.4359744722207100E-17
_JPCAL=  4.184000000000000    
_PLANCK= 0.6626070150000000E-33
_BOHR= 0.5291772109030000E-10
_ECHARG= 0.1602176634000000E-18
_ENULL= 0.8854187812800001E-11
_MU= 0.1660539066600000E-26
_EMASS= 0.9109383701500001E-30
_AMU2AU=  1822.888486217313    
_CLIGHT=  29979245800.00000    
_EV= 0.3674932217565494E-01
_KJOULE= 0.3808798847133432E-03
_KJOULE/MOL= 0.3808798847133432E-03
_CM= 0.4556335252912009E-05
_CM-1= 0.4556335252912009E-05
_DEB2SI= 0.3335640951981520E-29
_KCAL= 0.1593601437640628E-02
_KCAL/MOL= 0.1593601437640628E-02
_KELVIN= 0.3166811563455608E-05
_HERTZ= 0.1519829846057038E-15
_HZ= 0.1519829846057038E-15
_TOA= 0.5291772109030000    
_TOANG= 0.5291772109030000    
_TORAD= 0.1745329251994330E-01
_TOCM=  219474.6313631965    
_TODEBYE=  2.541746473194078    
_TOE= 0.4803204712570263E-09
_TOEV=  27.21138624598803    
_TOHERTZ=  6579683920501656.    
_TOHZ=  6579683920501656.    
_TOK=  315775.0248040668    
_TOKCAL=  627.5094740630558    
_TOKELVIN=  315775.0248040668    
_TOKJ=  2625.499639479825    
_TOKJOULE=  2625.499639479825    
_TOKG= 0.1660539066600000E-26
_ANG=  1.889726124625770    
_ANGSTROM=  1.889726124625770    
_RPAREF=  0.000000000000000    
_RPADISS=  0.000000000000000    
_IGNORE_UNDEF=  2.000000000000000    
_STRICTCHECK=  0.000000000000000    
!SEWARD=  0.000000000000000    
!MULTI=  0.000000000000000    
!DFMULTI=  0.000000000000000    
!NUMHESS=  0.000000000000000    
_SEW_ONEEL=  0.000000000000000    
_CPPDONE=FALSE
_DKROLL_DONE=  0.000000000000000    
_FNUC_DONE=  0.000000000000000    
_FOCKDONE=TRUE
_GRADONE=FALSE
_HESSDONE=TRUE
_INTDONE=TRUE
_SCFDONE=TRUE
_MODUL_BLOCK=FALSE
_MODUL_SLATER=TRUE
_MODUL_MRCC=FALSE
_MODUL_NBO6=FALSE
_MODUL_NECI=FALSE
_MODUL_AIMS=TRUE
_MODUL_HDF5=FALSE
_MODUL_GECCO=FALSE
_ISWINDOWS=FALSE
_MRCC_EXEC=
_FITC_AO_SAVED=FALSE
_FITC_MO_SAVED=FALSE
_LSTYP=SEWARD
_INTYP=INTS
_GEOMTYP=XYZ
_GRADTYP=ALASKA
_DIRECT=FALSE
_DKHO= -1.000000000000000    
_FNUC=  0.000000000000000    
_SYNCM=  0.000000000000000    
_BASIS=6-311G(D,P)
_ZCENTRE=MASS
_ZORIENT=  1.000000000000000    
_NELEC=  20.00000000000000    
!SPIN=  0.000000000000000    
_OPTCONV= 0.3299187121881251E-01
_QSDSTEP=  0.000000000000000    
_QSDIRC=  0.000000000000000    
_PROGRAM=FREQ
_CPUSTEP=  4.230000000000000    
_SYSSTEP= 0.1500000000000001    
_WALLSTEP=  4.380000000000000    
!DFSCF=  0.000000000000000    
!SCSGRD=  0.000000000000000    
_NCEN=  6.000000000000000    
_CPUTOT=  18.03000000000000    
_DFTEXFAC=  1.000000000000000    
_DMX=-0.8104487309167933E-01
_DMY= 0.2794717825656615E-02
_DMZ=  1.266182735870382    
_DMX_SCF=-0.8104487309167933E-01
_DMY_SCF= 0.2794717825656615E-02
_DMZ_SCF=  1.266182735870382    
_FREQUENCIES= 0.7133481189906987E-04
_HOMO=  10.10000000000000    
_EHOMO=-0.4706405851112482    
_LUMO=  11.10000000000000    
_ELUMO= 0.1334554011207059    
_ENERGY= -152.1029126776196    
_ENERGY_METHOD=HF
_ENERGY_BASIS=6-311G(D,P)
_GEOMETRY_METHOD=
_GEOMETRY_BASIS=
_ENUC=  36.51034566602426    
_GRADENERG= -152.1029119736346    
_GRADEXFAC=  9999.000000000000    
_GRADMETHOD=  1.000000000000000    
_NMRMETHOD=  0.000000000000000    
_NMRMAGNET=  0.000000000000000    
_VIRIAL=-0.2556627294952525E-03
!GRID_FREEZE= -1.000000000000000    
!NEESE_INDEX=  0.000000000000000    
_ITERATIONS=  13.00000000000000    
_LASTNELEC=  20.00000000000000    
_LASTSPIN=  0.000000000000000    
_LASTSYM=  1.000000000000000    
_MPP_PROG=  0.000000000000000    
_MSNSTATES=  0.000000000000000    
_RS2PHASE=  0.000000000000000    
_NPROC_MPP=  1.000000000000000    
_NPROC_SMP=  6.000000000000000    
_NUMSTEP=  0.000000000000000    
_OPTCONVMX= 0.2990376915424378E-01
_OPTCONVRMS= 0.9523932864625434E-02
_OPTGRAD= 0.2013319137101241E-03
_OPTGRADMX= 0.1237089595184219E-03
_OPTGRADRMS= 0.5811951728850133E-04
!GMAXLAST= 0.1237089595184219E-03
!DMAXLAST= 0.2990376915424378E-01
!DELAST= 0.1660669880720889E-05
_OPTSTEP=  22.00000000000000    
_ORBITAL=  2100.200000000000    
_PI=  3.141592653589793    
_SEIG_MIN= 0.1412307761640138E-01
_SEWPROP=TRUE
_STATUS=  1.000000000000000    
_SYSTOT=  1.510000000000000    
_VERSION=  2024001.000000000    
_WALLTOT=  19.55000000000000    
_ZPE= 0.4949469394659271E-01
_DATE=18-Sep-24
_LASTORB=0
_OUTPUT=/home/lme/Theoretische_Chemie/Nomodeco/pymolpro_integration/water_dimer/Water_Dimer.molpro/run/Water_Dimer_1.molpro/Water_Dimer_1.out
_PGROUP=C1
_TIME=10:23:41
_LIBMOL=/usr/local/molpro/molpro_2024.1.0_sockets/lib/
_VIGRDC=  0.000000000000000    
!VIBCNT=  0.000000000000000    
!SURFREC=  0.000000000000000    
!XSURFREC=  0.000000000000000    
!XPOLYREC=  0.000000000000000    
!ROTREC=  0.000000000000000    
!POLYREC=  0.000000000000000    
!DIPREC=  0.000000000000000    
!DIP4DREC=  0.000000000000000    
!DIPROT=  0.000000000000000    
!DIP4DROT=  0.000000000000000    
!PTREC=  0.000000000000000    
!PT4DREC=  0.000000000000000    
!VSCFREC=  0.000000000000000    
!VCIREC=  0.000000000000000    
!PVCIREC=  0.000000000000000    
!VMP2REC=  0.000000000000000    
!VMCSCFREC=  0.000000000000000    
!VMRCIREC=  0.000000000000000    
!VIBSTATEREC=  0.000000000000000    
!VIBSTATECNT=  0.000000000000000    
!VIBINFO=  0.000000000000000    
!GAREC=  0.000000000000000    
!SCFORB=  21002.00000000000    
!DEFCORE=  2.000000000000000    
!SCORE=  0.000000000000000    
!NEWMOL=  0.000000000000000    
!NEWSYM=  0.000000000000000    
_SLFILES=slscratch
_NGSSTO=  9.000000000000000    
_SIN=SIN
_COS=COS
_TAN=TAN
_ACOS=ACOS
_ASIN=ASIN
_ATAN=ATAN
_COSH=COSH
_SINH=SINH
_TANH=TANH
_ABS=ABS
_MOD=MOD
_ERF=ERF
_REFC=REFC
_ERFC=ERFC
_HYPOT=HYPOT
_J0=J0
_J1=J1
_JN=JN
_GAMMA=GAMMA
_LGAMMA=LGAMMA
_Y0=Y0
_Y1=Y1
_YN=YN
_EXP=EXP
_LOG=LOG
_LOG10=LOG10
_SQRT=SQRT
_INT=INT
_NINT=NINT
_MAX=MAX
_MIN=MIN
_COSMO=  0.000000000000000    
_COSMOIT=  0.000000000000000    
_COSMOES=  0.000000000000000    
_COSMOEDS=  0.000000000000000    
_COSMOEC=  0.000000000000000    
_COSMOEDCORR=  0.000000000000000    
_FEPSI=  1.000000000000000    
_SL_IsMM=  0.000000000000000    
_SL_NSYM=  1.000000000000000    
_SL_System_BitSw=  0.000000000000000    
_SL_Unique_atoms=  0.000000000000000    
_SL_GRAD=  0.000000000000000    
_SL_MAXUPD_Hess=  5.000000000000000    
_SL_N_PRINT_COD=  5.000000000000000    
_SL_PRINT_CODES=  0.000000000000000    
_SL_BasType=  0.000000000000000    
_SL_Energy_Pred=  0.000000000000000    
_SL_New_Coords=  0.000000000000000    
_SL_Total_Nuclea=  0.000000000000000    
_SL_Highest_Mltp=  0.000000000000000    
_SL_Ref_Geom=  0.000000000000000    
_SL_Symmetry_ope=  1.000000000000000    
_SL_agrad=  0.000000000000000    
_SL_GrdMax=  0.000000000000000    
_SL_GrdNorm=  0.000000000000000    
_SL_GrdRMS=  0.000000000000000    
_SL_Hss_Q=  0.000000000000000    
_SL_Hss_X=  0.000000000000000    
_SL_BMxOld=  0.000000000000000    
_SL_KtB=  0.000000000000000    
_SL_TROld=  0.000000000000000    
_SL_No_of_Intern=  0.000000000000000    
_SL_Hess=  0.000000000000000    
_SL_K=  0.000000000000000    
!LATTICE= -1.000000000000000    
!NEWLATTICE=  0.000000000000000    
!LATGRAD_VAR=FALSE
!SEW_LATTICE=  1.000000000000000    
!AIC_ONEEL=  0.000000000000000    
!LOCAL=  0.000000000000000    
!SAVEDOM= -1.000000000000000    
!RESTDOM= -1.000000000000000    
!SAVEDOM_HF= -1.000000000000000    
!RESTDOM_HF= -1.000000000000000    
!HESSREC=  5300.200000000000    
!FREQREC=  5400.200000000000    
!NMODREC=  5450.200000000000    
!GTASKS=  0.000000000000000    
!HTASKS=  0.000000000000000    
!SAVEDOM_EOM= -1.000000000000000    
!RESTDOM_EOM= -1.000000000000000    
!GRADSTATE= -1.000000000000000    
!DEBUG=  0.000000000000000    
!CFIT_CPHF=  0.000000000000000    
!RDOMAUX_CPHF=  0.000000000000000    
!THRAO_CPHF= 0.1000000000000000E-11
!THRMO_CPHF= 0.1000000000000000E-11
!THROV_CPHF= 0.1000000000000000E-13
!THRSW_CPHF= 0.1000000000000000E-11
!THRPROD_CPHF= 0.1000000000000000E-11
!THRAOPR_CPHF= 0.1000000000000000E-11
!CFIT_SCFGRD=  0.000000000000000    
!RDOMAUX_SCFGRD=  0.000000000000000    
!THRAO_SCFGRD= 0.1000000000000000E-11
!THRMO_SCFGRD= 0.1000000000000000E-11
!THROV_SCFGRD= 0.1000000000000000E-13
!THRSW_SCFGRD= 0.1000000000000000E-11
!THRPROD_SCFGRD= 0.1000000000000000E-11
!THRAOPR_SCFGRD= 0.1000000000000000E-11
!LOCFIT_SCF=  0.000000000000000    
!LOCFIT_MP2=  0.000000000000000    
_RIDOM=  0.000000000000000    
!CC2_METHOD=  0.000000000000000    
_BASIS2006=FALSE
_SVDDEL= -1.000000000000000    
_SVDDELA= -1.000000000000000    
_SVDDELP= -1.000000000000000    
_SVDDELF= -1.000000000000000    
_SVDDELS= -1.000000000000000    
_SVDDEL_ABS= -1.000000000000000    
_SVDDELA_ABS= -1.000000000000000    
_SVDDELP_ABS= -1.000000000000000    
_SVDDELF_ABS= -1.000000000000000    
_SVDDELS_ABS= -1.000000000000000    
_MAXBASIS=  0.000000000000000    
!OPT_CONICAL=  0.000000000000000    
!CLEARSP_JGRID=  0.000000000000000    
_GRDHYBR=  0.000000000000000    
_STATEGRAD=  1.000000000000000    
_4EXT_NDISKS=  1.000000000000000    
!EMBEDFLAG=  1.000000000000000    
!EMBED=FALSE
!EMBED_F12=FALSE
!EMBEDNUC=  0.000000000000000    
_EMBEDENERGY=  0.000000000000000    
!EMBED_DFC=FALSE
!NUM_VOIDS=  0.000000000000000    
_IBODY=  0.000000000000000    
_EMBE_CORR=  0.000000000000000    
!EMBED_PROJ=FALSE
!EMB_PROJ_ZMU=  1000000.000000000    
!CORRECTION_HF=  0.000000000000000    
!EMBED_AORB=  0.000000000000000    
!EMBED_NACORR=  0.000000000000000    
!EMBED_MP2=FALSE
!EMBED_TRUNC_PERTURBATION=FALSE
!EMBED_FROZEN=  0.000000000000000    
!EMBED_ACTIVE=  0.000000000000000    
_CHANGE_BASIS=FALSE
_RESTORE_BASIS=FALSE
_FIX_EMBED_GUESS=FALSE
_EMBED_SCF=FALSE
_NEOBAS=FALSE
_NEOOVE=FALSE
_PRINEO=FALSE
_HUZINAGA_T=FALSE
_HUZINAGA_F=FALSE
_HUZINAGA=FALSE
_HUZINAGA_CORRECT=FALSE
!FASTLATGRAD=  1.000000000000000    
!FASTVLAMBDA= -1.000000000000000    
!IFORCE= -1.000000000000000    
!USESYM= -1.000000000000000    
_SINDEX=  0.000000000000000    
_AVDOM_OSV=  0.000000000000000    
_AVDOM_PNO=  0.000000000000000    
_AVDOM_PNOCC=  0.000000000000000    
_AVDOM_TNO=  0.000000000000000    
_AVDOM_TNOIT=  0.000000000000000    
_AVDOM_PAO=  0.000000000000000    
_AVDOM_LMO=  0.000000000000000    
_CC2OSV_FLAG=  0.000000000000000    
_EOMCCSD_CONV=FALSE
_TMADC2_FLAG=FALSE
_PROPADC2_FLAG=FALSE
_LEN_VirQ=  0.000000000000000    
_GRDCC2LR_FLAG=FALSE
_GRDADC2_FLAG=FALSE
_RO_VGLOBAL=  0.000000000000000    
_OPT=FALSE
_FREQ=FALSE
_HESS=FALSE
_CMRCC_callName=EMPTY
_CMRCC_callCount=  0.000000000000000    
_GECCO_CIROOT=  1.000000000000000    
_SYM_CATION=  1.000000000000000    
_MON_A=FALSE
_MON_B=FALSE
_MAXGEOM=  100.0000000000000    
!MAXGEOM=  100.0000000000000    
_NCORE=  0.000000000000000    
_NLARGECORE=  0.000000000000000    
GX1= 0.6249023859753262E-01
GY1=-0.1690963838438168E-02
GZ1= -1.529059927350456    
GX2= 0.2027219042264590E-01
GY2=-0.5881933340813719E-02
GZ2=-0.5849369738313457    
GX3=-0.8325239673217480    
GY3= 0.2519865162131393E-01
GZ3= -1.816365444558881    
GX4=-0.5501102287380452E-01
GY4= 0.1457533152323314E-02
GZ4=  1.447747338260742    
GX5= 0.3663478013901343    
GY5= 0.7448217315585864    
GZ5=  1.843652465255910    
GX6= 0.3272034249455111    
GY6=-0.7604337364060548    
GZ6=  1.848139417433132    
O1X1= 0.1180894364118550    
O1Y1=-0.3195458541294077E-02
O1Z1= -2.889504490832539    
H2X2= 0.3830888784506230E-01
H2Y2=-0.1111524309744302E-01
H2Z2= -1.105370680708635    
H3X3= -1.573242290424998    
H3Y3= 0.4761855027414046E-01
H3Z3= -3.432433232450419    
O4X4=-0.1039557670670142    
O4Y4= 0.2754338475453518E-02
O4Z4=  2.735845966968747    
H5X5= 0.6922970109861499    
H5Y5=  1.407509084315263    
H5Z5=  3.483998228324798    
H6X6= 0.6183248601865599    
H6Y6= -1.437011497733308    
H6Z6=  3.492477339074041    
[Atoms] Angs
O     1    8         0.0624902386       -0.0016909638       -1.5290599274
H     2    1         0.0202721904       -0.0058819333       -0.5849369738
H     3    1        -0.8325239673        0.0251986516       -1.8163654446
O     4    8        -0.0550110229        0.0014575332        1.4477473383
H     5    1         0.3663478014        0.7448217316        1.8436524653
H     6    1         0.3272034249       -0.7604337364        1.8481394174
[GTO]
   1 0
 s    6  1.00
  0.8588500000D+04  0.1895150083D-02
  0.1297230000D+04  0.1438590063D-01
  0.2992960000D+03  0.7073200310D-01
  0.8737710000D+02  0.2400010105D+00
  0.2567890000D+02  0.5947970261D+00
  0.3740040000D+01  0.2808020123D+00
 s    3  1.00
  0.4211750000D+02  0.1138890124D+00
  0.9628370000D+01  0.9208111006D+00
  0.2853320000D+01 -0.3274470358D-02
 s    1  1.00
  0.9056610000D+00  0.1000000000D+01
 s    1  1.00
  0.2556110000D+00  0.1000000000D+01
 p    3  1.00
  0.4211750000D+02  0.3651139738D-01
  0.9628370000D+01  0.2371529830D+00
  0.2853320000D+01  0.8197019412D+00
 p    1  1.00
  0.9056610000D+00  0.1000000000D+01
 p    1  1.00
  0.2556110000D+00  0.1000000000D+01
 d    1  1.00
  0.1292000000D+01  0.1000000000D+01
  
   2 0
 s    3  1.00
  0.3386500000D+02  0.2549381454D-01
  0.5094790000D+01  0.1903731086D+00
  0.1158790000D+01  0.8521614860D+00
 s    1  1.00
  0.3258400000D+00  0.1000000000D+01
 s    1  1.00
  0.1027410000D+00  0.1000000000D+01
 p    1  1.00
  0.7500000000D+00  0.1000000000D+01
  
   3 0
 s    3  1.00
  0.3386500000D+02  0.2549381454D-01
  0.5094790000D+01  0.1903731086D+00
  0.1158790000D+01  0.8521614860D+00
 s    1  1.00
  0.3258400000D+00  0.1000000000D+01
 s    1  1.00
  0.1027410000D+00  0.1000000000D+01
 p    1  1.00
  0.7500000000D+00  0.1000000000D+01
  
   4 0
 s    6  1.00
  0.8588500000D+04  0.1895150083D-02
  0.1297230000D+04  0.1438590063D-01
  0.2992960000D+03  0.7073200310D-01
  0.8737710000D+02  0.2400010105D+00
  0.2567890000D+02  0.5947970261D+00
  0.3740040000D+01  0.2808020123D+00
 s    3  1.00
  0.4211750000D+02  0.1138890124D+00
  0.9628370000D+01  0.9208111006D+00
  0.2853320000D+01 -0.3274470358D-02
 s    1  1.00
  0.9056610000D+00  0.1000000000D+01
 s    1  1.00
  0.2556110000D+00  0.1000000000D+01
 p    3  1.00
  0.4211750000D+02  0.3651139738D-01
  0.9628370000D+01  0.2371529830D+00
  0.2853320000D+01  0.8197019412D+00
 p    1  1.00
  0.9056610000D+00  0.1000000000D+01
 p    1  1.00
  0.2556110000D+00  0.1000000000D+01
 d    1  1.00
  0.1292000000D+01  0.1000000000D+01
  
   5 0
 s    3  1.00
  0.3386500000D+02  0.2549381454D-01
  0.5094790000D+01  0.1903731086D+00
  0.1158790000D+01  0.8521614860D+00
 s    1  1.00
  0.3258400000D+00  0.1000000000D+01
 s    1  1.00
  0.1027410000D+00  0.1000000000D+01
 p    1  1.00
  0.7500000000D+00  0.1000000000D+01
  
   6 0
 s    3  1.00
  0.3386500000D+02  0.2549381454D-01
  0.5094790000D+01  0.1903731086D+00
  0.1158790000D+01  0.8521614860D+00
 s    1  1.00
  0.3258400000D+00  0.1000000000D+01
 s    1  1.00
  0.1027410000D+00  0.1000000000D+01
 p    1  1.00
  0.7500000000D+00  0.1000000000D+01


[MO]
 Sym=      1.1
 Ene=     -20.5725
 Spin= Alpha
 Occup=    2.000000
1 -0.000020030922109
2 -0.000024475393880
3 0.000063427027597
4 -0.000234453646678
5 -0.000006204669415
6 0.000000313268654
7 -0.000010043929681
8 0.000024728861678
9 -0.000001182481219
10 0.000037131048838
11 0.000000633705349
12 0.000000856860015
13 -0.000134719389241
14 -0.000006496446126
15 0.000007099177449
16 -0.000000602731323
17 0.000000454915804
18 -0.000001735766374
19 -0.000000062109874
20 -0.000030617172922
21 0.000157614044919
22 0.000198122625158
23 -0.000003888308140
24 0.000000564443392
25 0.000030834457174
26 0.000003369085601
27 0.000051910914940
28 -0.000076621886542
29 0.000017306085212
30 -0.000000586949980
31 0.000013914588547
32 0.55142844832901
33 0.47167028125480
34 0.005610666913330
35 -0.000540718961435
36 0.001247606319105
37 -0.000029229158442
38 0.001151798637325
39 -0.000433821575770
40 0.000010093809217
41 -0.000445087747745
42 0.000052865159260
43 -0.000000782517198
44 0.000162509400080
45 0.000051812007958
46 -0.000094493172592
47 0.000042681164635
48 -0.000004561535369
49 -0.000072424793428
50 0.000002387885984
51 0.000194852448827
52 0.000123913661327
53 0.000055435092905
54 -0.000004881017612
55 -0.000068827241368
56 -0.000026866897794
57 0.000194794654395
58 0.000124446497017
59 0.000055036928555
60 -0.000001382997003
61 0.000068916222343
62 -0.000027358580258
 Sym=      2.1
 Ene=     -20.5082
 Spin= Alpha
 Occup=    2.000000
1 0.55142512410669
2 0.47167109112872
3 0.005620088656316
4 -0.000574338157033
5 -0.001441340388996
6 0.000035005469395
7 0.000923794750228
8 0.000508097386159
9 -0.000012577321005
10 -0.000289876149695
11 -0.000079079767179
12 0.000002387123251
13 -0.000026307963535
14 -0.000054605732494
15 0.000109096283526
16 -0.000054490551033
17 0.000005615427392
18 -0.000048396715900
19 0.000002499306945
20 0.000196435100993
21 0.000116869500736
22 0.000236689387567
23 -0.000029392572705
24 0.000001297782995
25 -0.000058995175998
26 0.000207664593414
27 0.000111890401817
28 0.000042644747342
29 0.000056670091781
30 -0.000001935472038
31 0.000055550447560
32 0.000020604662935
33 0.000015692326613
34 0.000018031792326
35 -0.000062911194148
36 0.000002573502382
37 -0.000000038471801
38 0.000010596525886
39 -0.000010277954965
40 0.000000210137985
41 -0.000031963801773
42 0.000004505662785
43 0.000000370135274
44 0.000087788306573
45 0.000002794254226
46 -0.000002097381464
47 -0.000000696872762
48 -0.000000108233527
49 0.000000764632704
50 0.000000020637138
51 -0.000003879435125
52 0.000022713232449
53 -0.000035390757670
54 -0.000000589470066
55 -0.000000794781733
56 -0.000011709655171
57 -0.000004015139024
58 0.000023509735020
59 -0.000035990251602
60 -0.000000643885995
61 0.000000830647655
62 -0.000011814391303
 Sym=      3.1
 Ene=      -1.3786
 Spin= Alpha
 Occup=    2.000000
1 -0.006522047816199
2 -0.010840735680569
3 0.030077411523852
4 0.022613851212141
5 -0.001574184369513
6 0.000034225599419
7 0.002459868528370
8 -0.002946747412839
9 0.000071234338849
10 0.003062886960235
11 -0.000903827658144
12 0.000019059233695
13 0.003268244436853
14 0.000152099651362
15 -0.000601895878897
16 0.000449796227535
17 -0.000025161659916
18 0.000033567290252
19 -0.000005276704650
20 0.008543380586365
21 0.006507229050972
22 -0.001460942621366
23 -0.000037143200813
24 0.000007429577591
25 -0.001710386600381
26 0.005215541467681
27 0.003050079131410
28 0.001621300080612
29 0.001185299181661
30 -0.000036537761909
31 0.000422200893386
32 -0.11342293520315
33 -0.18947690906504
34 0.53804565512823
35 0.37615599021308
36 0.026641955760318
37 -0.000620529753278
38 0.025069219377110
39 0.044521629514903
40 -0.001037141369241
41 0.041878510145304
42 0.015137244195495
43 -0.000385289926011
44 0.009467811659925
45 -0.003036066221832
46 0.005662527334615
47 -0.002626461112783
48 0.000278721689892
49 0.006190747389368
50 -0.000189172611462
51 0.095534666685985
52 0.078529705390784
53 -0.002866181662622
54 -0.010841524185974
55 -0.023492646619422
56 -0.009553986103928
57 0.095539750947971
58 0.078515526116012
59 -0.002851922620715
60 -0.009603991696099
61 0.023965023361192
62 -0.009695913219085
 Sym=      4.1
 Ene=      -1.3175
 Spin= Alpha
 Occup=    2.000000
1 -0.11316134119120
2 -0.18896819247378
3 0.53522292727900
4 0.37947032000329
5 -0.031085647683063
6 0.000756039367601
7 0.021187486246321
8 -0.052094797464957
9 0.001274031965912
10 0.034868032198318
11 -0.016114501096405
12 0.000367036384646
13 0.014036405499890
14 0.003782585526679
15 -0.008324399731349
16 0.004541814204669
17 -0.000403287134204
18 0.001603466707916
19 -0.000129786092935
20 0.094052287070065
21 0.075048600515302
22 -0.008495493157102
23 -0.001335572272477
24 0.000180510739339
25 -0.027870886042333
26 0.097083823577285
27 0.081135970959455
28 0.000491475994545
29 0.025150300732137
30 -0.000771151457126
31 0.010844669579886
32 0.007343421186425
33 0.012305146666046
34 -0.035417439335516
35 -0.022595035907647
36 -0.001972649954995
37 0.000042252788506
38 -0.004068401170223
39 -0.003042844063268
40 0.000069104759180
41 -0.004890366244653
42 -0.001054641032465
43 0.000003754854921
44 -0.006007419686734
45 0.000185808309047
46 -0.000354486054126
47 0.000168677745079
48 -0.000018564170780
49 -0.000517977024044
50 0.000013293303823
51 -0.006783004732950
52 -0.006946806252757
53 0.002121905521160
54 0.000777159802644
55 0.001763525478387
56 0.000848029073085
57 -0.006782911921163
58 -0.006975234290288
59 0.002128231929185
60 0.000687740450988
61 -0.001799854324499
62 0.000864133126887
 Sym=      5.1
 Ene=      -0.7471
 Spin= Alpha
 Occup=    2.000000
1 0.000005967679394
2 0.000010550948001
3 -0.000041969206603
4 0.000042991477761
5 0.000062704447190
6 0.001637511825781
7 0.000046304910102
8 0.000077863240871
9 0.002032625527223
10 0.000063890029277
11 0.000092568566287
12 0.003137100101284
13 0.000096056611710
14 -0.000008443456740
15 0.000001589254213
16 0.000006854202527
17 -0.000090812828832
18 0.000000447473454
19 0.000106564340867
20 0.000022562386134
21 -0.000003328804820
22 -0.000059700681486
23 0.000029515059434
24 0.001064387436403
25 0.000005808912847
26 -0.000024987413506
27 -0.000066349568128
28 0.000038726245611
29 -0.000009336585391
30 0.000047980258791
31 -0.000003325169670
32 -0.000003444263150
33 -0.000005901264724
34 0.000018523533406
35 0.000039795326130
36 0.005952926104171
37 0.22877036719446
38 -0.000680269365288
39 0.009147959058443
40 0.35148356044038
41 -0.001041969940557
42 0.005683591611319
43 0.21816743568027
44 -0.000645684520809
45 0.000942896515344
46 -0.000840817802644
47 -0.000102078712700
48 0.020899688017160
49 0.000453439427682
50 0.019804774485257
51 0.15074685396413
52 0.20548265198898
53 0.049004958549686
54 -0.018273089676746
55 -0.018501361276735
56 -0.017859042597438
57 -0.15074280424223
58 -0.20552815145152
59 -0.049007135206986
60 0.017292031300508
61 -0.019317692431430
62 0.017981163917144
 Sym=      6.1
 Ene=      -0.6906
 Spin= Alpha
 Occup=    2.000000
1 0.000595605684548
2 0.001001060736978
3 -0.002724879756796
4 -0.001217032703001
5 0.12128001708066
6 -0.004441646379563
7 0.18393550339659
8 0.18626632877378
9 -0.006816966038168
10 0.28161757054355
11 0.11218382743840
12 -0.004130178638072
13 0.17665589954531
14 -0.022455673075740
15 -0.000041457190823
16 0.022497130266564
17 0.000786411417036
18 -0.010183237561305
19 0.000140030664782
20 0.14721816205748
21 0.19637076630592
22 0.062273568852906
23 0.009744963856096
24 -0.000117715002958
25 -0.030541932139886
26 -0.14529900213299
27 -0.20398106992854
28 -0.057779260624657
29 -0.030375704203608
30 0.000858420854623
31 0.000405794806625
32 -0.004067310794070
33 -0.006951971909768
34 0.021327347039806
35 0.044351524555119
36 -0.014704846565218
37 0.000180021626974
38 -0.054228187968018
39 -0.022024469054221
40 0.000261058768277
41 -0.083339166926558
42 -0.012326986499127
43 0.000066813699074
44 -0.068526494124214
45 0.000451062690555
46 -0.000114101121948
47 -0.000336961568607
48 -0.000031328446378
49 -0.003418409386686
50 0.000083377479030
51 -0.018762149624031
52 -0.029341243252351
53 -0.004983234455709
54 0.001166149117712
55 0.006247965429195
56 -0.002937285914962
57 -0.018707307512623
58 -0.029284755500501
59 -0.004977952670739
60 0.000834888733862
61 -0.006313216415742
62 -0.002900936467960
 Sym=      7.1
 Ene=      -0.6048
 Spin= Alpha
 Occup=    2.000000
1 -0.011237946010398
2 -0.018956469878864
3 0.054357051450714
4 0.10336893283627
5 0.069864593530523
6 -0.002186916483875
7 0.015902435062277
8 0.10291570457958
9 -0.003223857206122
10 0.026454373515780
11 0.087623917308742
12 -0.002796191332352
13 0.014031330902715
14 -0.007126434655314
15 0.002480575181027
16 0.004645859474287
17 0.000320824879367
18 -0.000086577263171
19 -0.000021859091866
20 0.009617889073973
21 0.009205827943770
22 -0.036119382985636
23 0.007653077745449
24 -0.000222069104681
25 -0.004815324729523
26 -0.049509003928884
27 -0.071420120716955
28 -0.015360791438809
29 -0.008373905430740
30 0.000257130412141
31 -0.004967945432798
32 0.034910773221007
33 0.059345293017039
34 -0.17913639353651
35 -0.30448684194257
36 0.17174535028581
37 -0.003954728866925
38 0.17331063952884
39 0.25474677148041
40 -0.005857554363003
41 0.26007399306400
42 0.23144417387788
43 -0.005282420927430
44 0.23172199369486
45 0.002575244655653
46 -0.002919682400146
47 0.000344437744493
48 -0.000118501295783
49 0.015694938999050
50 -0.000399165622195
51 0.083719260033469
52 0.12816694577961
53 0.031384671088160
54 0.005153193064001
55 -0.027209218446358
56 0.006083944897567
57 0.083732409403574
58 0.12826822794618
59 0.031371135832818
60 0.006554092406839
61 0.026946098655574
62 0.005914371072304
 Sym=      8.1
 Ene=      -0.5466
 Spin= Alpha
 Occup=    2.000000
1 -0.032340252401132
2 -0.055021805001864
3 0.16684826017945
4 0.27512482396593
5 0.18061385450979
6 -0.004515002506205
7 -0.11628077469419
8 0.26814372658701
9 -0.006719339322401
10 -0.17047666978685
11 0.23895489445786
12 -0.005927218853342
13 -0.16636824910285
14 -0.009307265312592
15 0.010740514113421
16 -0.001433248800829
17 0.000604946347348
18 0.008885956569248
19 -0.000176094866922
20 -0.069133554659859
21 -0.10322288223184
22 -0.011347362302565
23 0.018637524154152
24 -0.000600353278056
25 0.014833004972736
26 -0.079517976985999
27 -0.13428757262930
28 -0.026860024652952
29 -0.008764884699139
30 0.000377507909663
31 -0.023882894810916
32 -0.009671549911661
33 -0.016514585713259
34 0.051341013551516
35 0.076382861817900
36 -0.13898019469855
37 0.003807459860281
38 0.062521094361788
39 -0.20887630915627
40 0.005722612590228
41 0.093841825524685
42 -0.20872106480595
43 0.005769609033849
44 0.11123707144036
45 -0.007096633219674
46 0.001397561861784
47 0.005699071357890
48 0.000249334344705
49 -0.002968049400170
50 0.000094206379538
51 -0.017291146596807
52 -0.030233045413990
53 -0.007158373982675
54 -0.012141376590400
55 0.006631578882254
56 0.008356427583843
57 -0.017309551965534
58 -0.030219207770541
59 -0.007246760637929
60 -0.012471515045189
61 -0.005942718022727
62 0.008394894138882
 Sym=      9.1
 Ene=      -0.5247
 Spin= Alpha
 Occup=    2.000000
1 0.015212917297076
2 0.025926766840748
3 -0.079956355527525
4 -0.13112073047198
5 -0.089267830834494
6 0.001564407739733
7 0.10246033046762
8 -0.13174563183643
9 0.002309290755297
10 0.15300089398434
11 -0.12531113811419
12 0.002101828375464
13 0.13742808815706
14 0.002378532558361
15 -0.006408080039012
16 0.004029547480650
17 -0.000228521756823
18 -0.006862654269946
19 0.000103448594400
20 0.054141664056435
21 0.094414109817275
22 -0.033185437528178
23 -0.011740938892969
24 0.000360318920677
25 -0.015309265840350
26 0.026994497672233
27 0.044316712215296
28 0.019886680099602
29 0.000589276389535
30 -0.000139377904026
31 0.016105099469407
32 0.003414902723117
33 0.005782096365686
34 -0.015776621077125
35 -0.040931691820421
36 -0.16306252502030
37 0.004806434623020
38 0.19295768476615
39 -0.24478977029079
40 0.007214312047073
41 0.29053144138310
42 -0.26794923550008
43 0.007872345203714
44 0.29825865274596
45 -0.012004018249308
46 -0.000172205709856
47 0.012176223959164
48 0.000361696206130
49 0.001988516996045
50 -0.000013977259312
51 0.007376349124890
52 0.015742169692819
53 0.009789963421267
54 -0.018453224829970
55 -0.003293527748917
56 0.019046280279497
57 0.007397323570409
58 0.015762083906214
59 0.009834866002495
60 -0.018260498339743
61 0.004363671329177
62 0.019026994616192
 Sym=     10.1
 Ene=      -0.4706
 Spin= Alpha
 Occup=    2.000000
1 0.000000731173581
2 0.000002615485910
3 -0.000040215652269
4 0.000226449333357
5 0.008147152994469
6 0.29024929226472
7 0.001768917311203
8 0.012152754437472
9 0.43358818124186
10 0.002632441207194
11 0.013236810797146
12 0.47045795152755
13 0.002961047848562
14 -0.000672766330964
15 0.000568656956889
16 0.000104109374075
17 -0.013747591263528
18 0.000179255135687
19 0.009336743673883
20 0.000036912410974
21 0.000027110944090
22 -0.000598173973321
23 0.000824988010296
24 0.029590856346033
25 0.000173544368084
26 0.000004427043967
27 -0.000026493618247
28 0.000190663455626
29 0.000875392853518
30 0.031362610130523
31 0.000185717867840
32 0.000036545389228
33 0.000063293561127
34 -0.000214920686910
35 -0.000174718422618
36 -0.000265318649044
37 -0.002852260753678
38 0.000401649221371
39 -0.000389899591338
40 -0.004125971488141
41 0.000661849178225
42 -0.000083914896001
43 0.008090309190498
44 0.000413386526863
45 -0.000008559204165
46 -0.000017393921663
47 0.000025953125828
48 0.000354866469455
49 0.000009563129128
50 -0.000007401104381
51 -0.000865943683829
52 -0.017499357752753
53 0.017213536588176
54 0.001452485306771
55 0.000846993412840
56 0.001172289810394
57 0.000982560561354
58 0.017421085108756
59 -0.016732966474521
60 -0.001467121360110
61 0.000934332169744
62 -0.001063117392265
 Sym=     11.1
 Ene=       0.1335
 Spin= Alpha
 Occup=    0.000000
1 0.011626567986648
2 0.019541336940517
3 -0.051800551360978
4 -0.17043777056539
5 0.018662690511674
6 -0.000525797284028
7 -0.021485281500045
8 0.022814621443620
9 -0.000586523834476
10 -0.039257883200588
11 0.054884185602880
12 -0.001782626773455
13 0.004570794334554
14 -0.001135872519699
15 -0.000133301424474
16 0.001269173944173
17 0.000030029682361
18 0.001545160586890
19 -0.000032273373239
20 0.010480364169306
21 -0.058144107303291
22 0.069002430808672
23 0.001638356072706
24 -0.000169382150089
25 0.009286679938255
26 0.012801666698504
27 -0.045360427212200
28 0.33282403675285
29 -0.002177453816597
30 0.000089439679651
31 -0.007165670294074
32 0.034162759413001
33 0.056164972847260
34 -0.11536380756570
35 -0.82003698152543
36 -0.047003094235295
37 0.001176345029187
38 -0.040371276692575
39 -0.074462289747300
40 0.001834958525421
41 -0.061534346147164
42 -0.13535349512686
43 0.003303386500346
44 -0.12720859156236
45 -0.000039814761516
46 -0.000967893230939
47 0.001007707992456
48 -0.000044855299109
49 -0.004598733961533
50 0.000122158338841
51 0.034360748306726
52 -0.049514594449433
53 0.78793725107810
54 -0.002066739567427
55 0.004691184688342
56 -0.000552665447251