
 Working directory              : /tmp/lme/molpro.GBiEr2TnPC/
 Global scratch directory       : /tmp/lme/molpro.GBiEr2TnPC/
 Wavefunction directory         : /home/lme/wfu/
 Main file repository           : /tmp/lme/molpro.GBiEr2TnPC/

 id        : liedlgroup

 Nodes     nprocs
 sv1-c724     1
 GA implementation: MPI file
 GA implementation (serial work in mppx): MPI file

 Using customized tuning parameters: mindgm=1; mindgv=20; mindgc=4; mindgr=1; noblas=0; minvec=7
 default implementation of scratch files=df  


 Variables initialized (1042), CPU time= 0.01 sec
 
                       orient,mass
                       geometry=/home/lme/Theoretische_Chemie/Nomodeco/pymolpro_integration/water_dimer/water_dimer.xyz
 Including file /home/lme/Theoretische_Chemie/Nomodeco/pymolpro_integration/water_dimer/water_dimer.xyz
                       mass, iso
                       basis=6-311g(d,p)
                       {hf
                       start, atden}
                       optg;
                       {frequencies, symm=auto, print=0, analytical}
                       put, molden, Water_Dimer.molden
 Commands initialized (847), CPU time= 0.00 sec, 718 directives.
 Default parameters read. Elapsed time= 0.06 sec

 Checking input...
 Passed
1


                                         ***  PROGRAM SYSTEM MOLPRO  ***
                                       Copyright, TTI GmbH Stuttgart, 2015
                                    Version 2024.1 linked Wed Jan 31 11:42:09 2024


 **********************************************************************************************************************************
 LABEL *                                                                                                                                                                 
  (6 PROC) 64 bit serial version                                                         DATE: 18-Sep-24          TIME: 10:23:41  
 **********************************************************************************************************************************

 SHA1:             675817fde4514a4a933b69e420913a90cee4ef91
 **********************************************************************************************************************************

 Memory per process:        32 MW
 Total memory per node:     32 MW

 GA preallocation disabled
 GA check disabled

 Variable memory set to 32.0 MW

 ZCENTRE=MASS


 Geometry recognized as XYZ



 Using masses of most abundant isotopes

 **********************************************************************************************************************************
 SETTING BASIS          =    6-311G(D,P)


 Recomputing integrals since basis changed


 Using spherical harmonics

 Library entry O      S 6-311G               selected for orbital group  1
 Library entry O      P 6-311G               selected for orbital group  1
 Library entry O      D 6-311G*              selected for orbital group  1
 Library entry H      S 6-311G               selected for orbital group  2
 Library entry H      P 6-311G**             selected for orbital group  2


 PROGRAM * SEWARD (Integral evaluation for generally contracted gaussian basis sets)     Author: Roland Lindh, 1990

 Geometry written to block  1 of record 700

 Orientation using atomic masses  
 Molecule type: Asymmetric top
 Rotational constants:       5.8437692      5.9823572    244.9699746 GHz

 Point group  C1  



 ATOMIC COORDINATES

 NR  ATOM    CHARGE       X              Y              Z

   1  O1      8.00    0.012435438    0.051314869   -2.979821864
   2  H2      1.00   -0.192697654    1.004543482   -1.561205825
   3  H3      1.00   -0.114848413   -1.597285472   -2.501167160
   4  O4      8.00    0.024766971    0.026507588    2.767489001
   5  H5      1.00   -0.180366122    0.979736201    4.186105040
   6  H6      1.00   -0.102516881   -1.622092753    3.246143705

 Bond lengths in Bohr (Angstrom)

 1-2  1.721393575  1-3  1.721393211  4-5  1.721393575  4-6  1.721393211
     ( 0.910922251)     ( 0.910922058)     ( 0.910922251)     ( 0.910922058)

 Bond angles

  2-1-3  107.00002446   5-4-6  107.00002446

 NUCLEAR CHARGE:                   20
 NUMBER OF PRIMITIVE AOS:          96
 NUMBER OF SYMMETRY AOS:           94
 NUMBER OF CONTRACTIONS:           60   (   60A   )
 NUMBER OF INNER CORE ORBITALS:     0   (    0A   )
 NUMBER OF OUTER CORE ORBITALS:     2   (    2A   )
 NUMBER OF VALENCE ORBITALS:       12   (   12A   )


 NUCLEAR REPULSION ENERGY   36.71638738


 Eigenvalues of metric

         1 0.147E-01 0.154E-01 0.316E-01 0.343E-01 0.742E-01 0.853E-01 0.888E-01 0.935E-01


 Contracted 2-electron integrals neglected if value below      1.0D-11
 AO integral compression algorithm  1   Integral accuracy      1.0D-11

     5.767 MB (compressed) written to integral file ( 35.9%)


 NUMBER OF SORTED TWO-ELECTRON INTEGRALS:    1675365.     BUFFER LENGTH:  32768
 NUMBER OF SEGMENTS:   1  SEGMENT LENGTH:    1675365      RECORD LENGTH: 524288

 Memory used in sort:       2.23 MW

 SORT1 READ     2065183. AND WROTE     1166366. INTEGRALS IN      4 RECORDS. CPU TIME:     0.01 SEC, REAL TIME:     0.02 SEC
 SORT2 READ     1166366. AND WROTE     1675365. INTEGRALS IN     22 RECORDS. CPU TIME:     0.05 SEC, REAL TIME:     0.06 SEC

 FILE SIZES:   FILE 1:    36.0 MBYTE,  FILE 4:    16.8 MBYTE,   TOTAL:     52.8 MBYTE

 OPERATOR DM      FOR CENTER  0  COORDINATES:    0.000000    0.000000    0.000000


 **********************************************************************************************************************************
 DATASETS  * FILE   NREC   LENGTH (MB)   RECORD NAMES
              1      19       33.02       500      610      700      900      950      970     1000      129      960     1100   
                                          VAR    BASINP    GEOM    SYMINP    ZMAT    AOBASIS   BASIS     P2S    ABASIS      S 
                                         1400     1410     1200     1210     1080     1600     1650     1300     1700   
                                           T        V       H0       H01     AOSYM     SMH    MOLCAS    ERIS     OPER   

 PROGRAMS   *        TOTAL       INT
 CPU TIMES  *         0.37      0.27
 REAL TIME  *         0.44 SEC
 DISK USED  *        50.78 MB
 **********************************************************************************************************************************


 Program * Restricted Hartree-Fock

 Orbital guess generated from atomic densities.

 Initial occupancy:  10

 NELEC=   20   SYM=1   MS2= 0   THRE=1.0D-08   THRD=1.0D-06   THRG=1.0D-06  HFMA2=F  DIIS_START=2   DIIS_MAX=10   DIIS_INCORE=F

 Level shifts:    0.00 (CLOSED)    0.00 (OPEN)    0.30 (GAP_MIN)

 ITER           ETOT              DE          GRAD        DDIFF     DIIS  NEXP   TIME(IT)  TIME(TOT)  DIAG
   1     -152.02452425    -152.02452425     0.00D+00     0.62D-01     0     0       0.01      0.03    start
   2     -152.07948999      -0.05496575     0.14D-01     0.97D-02     1     0       0.01      0.04    diag
   3     -152.09484053      -0.01535053     0.72D-02     0.31D-02     2     0       0.01      0.05    diag
   4     -152.09518536      -0.00034484     0.76D-03     0.67D-03     3     0       0.01      0.06    diag
   5     -152.09520964      -0.00002428     0.18D-03     0.24D-03     4     0       0.02      0.08    diag
   6     -152.09521049      -0.00000084     0.29D-04     0.45D-04     5     0       0.00      0.08    diag
   7     -152.09521051      -0.00000003     0.68D-05     0.57D-05     6     0       0.01      0.09    diag
   8     -152.09521052      -0.00000000     0.27D-05     0.23D-05     7     0       0.01      0.10    fixocc
   9     -152.09521052      -0.00000000     0.36D-06     0.45D-06     8     0       0.01      0.11    diag
  10     -152.09521052      -0.00000000     0.53D-07     0.59D-07     0     0       0.01      0.12    diag/orth

 Final occupancy:  10

 !RHF STATE 1.1 Energy               -152.095210519142
  RHF One-electron energy            -282.777287508934
  RHF Two-electron energy              93.965689611411
  RHF Kinetic energy                  152.493960255362
  RHF Nuclear energy                   36.716387378381
  RHF Virial quotient                  -0.997385144070

 !RHF STATE 1.1 Dipole moment          -0.26093946    -0.53502852     1.62787843
 Dipole moment /Debye                  -0.66324194    -1.35990684     4.13765426

 Orbital energies:

           1.1          2.1          3.1          4.1          5.1          6.1          7.1          8.1          9.1         10.1
    -20.559673   -20.507767    -1.388547    -1.337674    -0.761402    -0.712154    -0.605558    -0.546585    -0.526639    -0.476953

          11.1         12.1
      0.134739     0.192871


 HOMO     10.1    -0.476953 =     -12.9786eV
 LUMO     11.1     0.134739 =       3.6664eV
 LUMO-HOMO         0.611692 =      16.6450eV

 Orbitals saved in record  2100.2


 **********************************************************************************************************************************
 DATASETS  * FILE   NREC   LENGTH (MB)   RECORD NAMES
              1      19       33.02       500      610      700      900      950      970     1000      129      960     1100   
                                          VAR    BASINP    GEOM    SYMINP    ZMAT    AOBASIS   BASIS     P2S    ABASIS      S 
                                         1400     1410     1200     1210     1080     1600     1650     1300     1700   
                                           T        V       H0       H01     AOSYM     SMH    MOLCAS    ERIS     OPER   

              2       4        0.52       700     1000      520     2100   
                                         GEOM     BASIS   MCVARS     RHF  

 PROGRAMS   *        TOTAL    HF-SCF       INT
 CPU TIMES  *         0.50      0.12      0.27
 REAL TIME  *         0.57 SEC
 DISK USED  *        50.78 MB
 **********************************************************************************************************************************


 PROGRAM * OPT (Geometry optimization)     Authors: F. Eckert and H.-J. Werner


 BFGS update of hessian

 *** Long output written to logfile /home/lme/Theoretische_Chemie/Nomodeco/pymolpro_integration/water_dimer/Water_Dimer.molpro/run/Water_Dimer_1.molpro/Water_Dimer_1.log ***


 Geometry optimization using default procedure for command HF-SCF

 Geometry written to block  1 of record 700

 PQS Optimization using delocalized internal coordinates

 Point group c1. Number of degrees of freedom:   12

 ITER.   ENERGY(OLD)    ENERGY(NEW)      DE          GRADMAX     GRADNORM    GRADRMS     STEPMAX     STEPLEN     STEPRMS   CPU-time
   1  -152.09521052  -152.09971843    -0.00450792  0.04450887  0.07840469  0.02263348  0.06493512  0.12504928  0.03609862      0.59
   2  -152.09971843  -152.09989871    -0.00018028  0.00255645  0.00593123  0.00171220  0.04944551  0.06641902  0.01917352      1.18
   3  -152.09989871  -152.10015318    -0.00025446  0.00269630  0.00372799  0.00107618  0.14874818  0.19276055  0.05564518      1.78
   4  -152.10015318  -152.10046628    -0.00031311  0.00311269  0.00472875  0.00136507  0.29055599  0.40218719  0.11610144      2.38
   5  -152.10046628  -152.10095696    -0.00049067  0.00514776  0.00821712  0.00237208  0.26883015  0.35817438  0.10339604      2.97
   6  -152.10095696  -152.10176344    -0.00080648  0.00456861  0.00732461  0.00211443  0.34814459  0.50000000  0.14433757      3.57
   7  -152.10176344  -152.10229502    -0.00053158  0.00222309  0.00409451  0.00118198  0.32727444  0.50000000  0.14433757      4.15
   8  -152.10229502  -152.10241525    -0.00012023  0.00109914  0.00184023  0.00053123  0.31226288  0.43062924  0.12431195      4.75
   9  -152.10241525  -152.10259107    -0.00017582  0.00127383  0.00191982  0.00055420  0.23292383  0.46632870  0.13461750      5.36
  10  -152.10259107  -152.10268032    -0.00008925  0.00137554  0.00198114  0.00057191  0.24988948  0.43015697  0.12417562      5.95
  11  -152.10268032  -152.10283344    -0.00015313  0.00129151  0.00199838  0.00057688  0.28125549  0.43391582  0.12526071      6.54
  12  -152.10283344  -152.10287960    -0.00004616  0.00091091  0.00188514  0.00054419  0.15165052  0.24088951  0.06953881      7.14
  13  -152.10287960  -152.10289558    -0.00001598  0.00082916  0.00124404  0.00035912  0.04753106  0.07304288  0.02108566      7.73
  14  -152.10289558  -152.10289872    -0.00000314  0.00039728  0.00064963  0.00018753  0.03966032  0.05064591  0.01462021      8.32
  15  -152.10289872  -152.10289952    -0.00000080  0.00036602  0.00053974  0.00015581  0.06582043  0.08169631  0.02358369      8.89
  16  -152.10289952  -152.10289957    -0.00000004  0.00036201  0.00051903  0.00014983  0.10074836  0.12487097  0.03604714      9.45
  17  -152.10289957  -152.10290207    -0.00000250  0.00030990  0.00049895  0.00014404  0.02132683  0.02508103  0.00724027     10.04
  18  -152.10290207  -152.10290583    -0.00000376  0.00027726  0.00042654  0.00012313  0.05241345  0.06278266  0.01812379     10.63
  19  -152.10290583  -152.10290712    -0.00000129  0.00021647  0.00036127  0.00010429  0.00692689  0.01121807  0.00323838     11.21
  20  -152.10290712  -152.10291031    -0.00000319  0.00018283  0.00028108  0.00008114  0.01102800  0.02113355  0.00610073     11.80
  21  -152.10291031  -152.10291197    -0.00000166  0.00010160  0.00018735  0.00005408  0.03086514  0.03429666  0.00990059     12.38
  22  -152.10291197  -152.10291268    -0.00000070  0.00012371  0.00020133  0.00005812  0.02990377  0.03299187  0.00952393     12.96

 END OF GEOMETRY OPTIMIZATION.

 Geometry written to block  1 of record 700

 Recomputing wavefunction for reoriented structure

 Current geometry (xyz format, in Angstrom)

    6
 HF-SCF000/6-311G(D,P)  ENERGY=-152.10291268
 O          0.0624902386       -0.0016909638       -1.5290599274
 H          0.0202721904       -0.0058819333       -0.5849369738
 H         -0.8325239673        0.0251986516       -1.8163654446
 O         -0.0550110229        0.0014575332        1.4477473383
 H          0.3663478014        0.7448217316        1.8436524653
 H          0.3272034249       -0.7604337364        1.8481394174

 **********************************************************************************************************************************


 **********************************************************************************************************************************
 DATASETS  * FILE   NREC   LENGTH (MB)   RECORD NAMES
              1      19       33.07       500      610      700      900      950      970     1000      129      960     1100   
                                          VAR    BASINP    GEOM    SYMINP    ZMAT    AOBASIS   BASIS     P2S    ABASIS      S 
                                         1400     1410     1200     1210     1080     1600     1650     1300     1700   
                                           T        V       H0       H01     AOSYM     SMH    MOLCAS    ERIS     OPER   

              2       4        0.52       700     1000      520     2100   
                                         GEOM     BASIS   MCVARS     RHF  

 PROGRAMS   *        TOTAL      OPTG    HF-SCF       INT
 CPU TIMES  *        13.80     13.30      0.12      0.27
 REAL TIME  *        15.17 SEC
 DISK USED  *        51.72 MB
 **********************************************************************************************************************************


 PROGRAM * HESSIAN

 PROGRAM * MCKINLEY (Hessian of the energy)     Author: A. Bernhardsson, R. Lindh

 Orbitals from record         2100.2

 Number of closed-shell orbitals: 10 ( 10 )
 Number of occupied orbitals:     10 ( 10 )

 Number of electrons= 20     Singlet     Space symmetry=1      Wavefunction type: CLOSED          


 McKinley needed      2.36 seconds of CPU time

 Entering CPHF calculation

 CPHF needed 140 iterations for 18 perturbations.  Total CPU time:    1.86 sec


 HF-SCF hessian saved to record  5300.2

 PROGRAM * FREQUENCIES (Calculation of harmonic vibrational spectra for HF-SCF)


 Permanent Dipole Moment [debye]
     1-   3    0.000000    0.000000    0.000000

 Dipole Moment Norm    0.0000000 [debye]

 Dipole Moment Derivatives [debye/ang]
              1             2             3             4             5             6             7             8
    1    0.00000000    0.00000000    0.00000000    0.00000000    0.00000000    0.00000000    0.00000000    0.00000000
    2    0.00000000    0.00000000    0.00000000    0.00000000    0.00000000    0.00000000    0.00000000    0.00000000
    3    0.00000000    0.00000000    0.00000000    0.00000000    0.00000000    0.00000000    0.00000000    0.00000000
              9            10            11            12            13            14            15            16
    1    0.00000000    0.00000000    0.00000000    0.00000000    0.00000000    0.00000000    0.00000000    0.00000000
    2    0.00000000    0.00000000    0.00000000    0.00000000    0.00000000    0.00000000    0.00000000    0.00000000
    3    0.00000000    0.00000000    0.00000000    0.00000000    0.00000000    0.00000000    0.00000000    0.00000000
             17            18
    1    0.00000000    0.00000000
    2    0.00000000    0.00000000
    3    0.00000000    0.00000000

 Projecting out rotations and translations

 Force Constants (Second Derivatives of the Energy) in [a.u.]
                             O1X1        O1Y1        O1Z1        H2X2        H2Y2    
           O1X1          0.6254867
           O1Y1         -0.0182061   0.0050590
           O1Z1          0.1229086  -0.0074191   0.7013832
           H2X2         -0.0604507   0.0011218   0.0662239   0.0639144
           H2Y2          0.0015158  -0.0066327   0.0014864  -0.0014454   0.0112338
           H2Z2          0.0037429   0.0032797  -0.5932228  -0.0088912  -0.0032413
           H3X3         -0.5677269   0.0170662  -0.1890651   0.0001692  -0.0000215
           H3Y3          0.0166903  -0.0014761   0.0059149   0.0003647   0.0008184
           H3Z3         -0.1262741   0.0041461  -0.1015183  -0.0571007   0.0017117
           O4X4          0.0037178   0.0000315  -0.0001075  -0.0049723  -0.0000650
           O4Y4         -0.0000007   0.0046097   0.0000242  -0.0000298  -0.0072076
           O4Z4         -0.0022056   0.0000254  -0.0065732   0.0034811  -0.0000440
           H5X5         -0.0005182   0.0001008   0.0000476   0.0006845   0.0001028
           H5Y5          0.0000022  -0.0007786   0.0010375  -0.0000003   0.0008756
           H5Z5          0.0009575   0.0016592  -0.0000254  -0.0019441  -0.0033501
           H6X6         -0.0005087  -0.0001141  -0.0000074   0.0006549  -0.0000867
           H6Y6         -0.0000016  -0.0007812  -0.0010439  -0.0000111   0.0009126
           H6Z6          0.0008707  -0.0016913  -0.0000435  -0.0017690   0.0034374
                             H2Z2        H3X3        H3Y3        H3Z3        O4X4    
           H2Z2          0.6103735
           H3X3          0.0061345   0.5677887
           H3Y3         -0.0000785  -0.0170426   0.0010190
           H3Z3         -0.0144393   0.1824144  -0.0058214   0.1165195
           O4X4         -0.0016329  -0.0002756  -0.0000222   0.0010972   0.2698772
           O4Y4          0.0000687  -0.0000122  -0.0007782  -0.0000447   0.0149112
           O4Z4         -0.0019428   0.0006545  -0.0000153  -0.0008021   0.2636523
           H5X5          0.0002683   0.0000165  -0.0001788  -0.0000727  -0.1442112
           H5Y5         -0.0020720  -0.0000349   0.0002153  -0.0000826  -0.1773747
           H5Z5         -0.0003663  -0.0000746  -0.0001814   0.0001164  -0.1364979
           H6X6          0.0003784   0.0000281   0.0001885  -0.0000642  -0.1241359
           H6Y6          0.0020434   0.0000451   0.0002017   0.0000909   0.1625193
           H6Z6         -0.0004023  -0.0000638   0.0001816   0.0001239  -0.1265112
                             O4Y4        O4Z4        H5X5        H5Y5        H5Z5    
           O4Y4          0.8118420
           O4Z4         -0.0084734   0.2784170
           H5X5         -0.2226911  -0.1365055   0.1347766
           H5Y5         -0.3953458  -0.1634224   0.2010860   0.4272633
           H5Z5         -0.2073003  -0.1334237   0.1276507   0.1869699   0.1243865
           H6X6          0.2078226  -0.1290768   0.0092519  -0.0236782   0.0099083
           H6Y6         -0.4131201   0.1719296   0.0215803  -0.0322298   0.0222027
           H6Z6          0.2157255  -0.1356751   0.0086116  -0.0224304   0.0093126
                             H6X6        H6Y6        H6Z6    
           H6X6          0.1147097
           H6Y6         -0.1841320   0.4450169
           H6Z6          0.1188617  -0.1952227   0.1266844


 Atomic Masses
     1-   6   15.994910    1.007825    1.007825   15.994910    1.007825    1.007825

 Mass weighted Second Derivative Matrix
                             O1X1        O1Y1        O1Z1        H2X2        H2Y2    
           O1X1          0.0391054
           O1Y1         -0.0011382   0.0003163
           O1Z1          0.0076842  -0.0004638   0.0438504
           H2X2         -0.0150563   0.0002794   0.0164942   0.0634182
           H2Y2          0.0003775  -0.0016520   0.0003702  -0.0014342   0.0111466
           H2Z2          0.0009322   0.0008169  -0.1477524  -0.0088222  -0.0032161
           H3X3         -0.1414021   0.0042506  -0.0470899   0.0001679  -0.0000213
           H3Y3          0.0041570  -0.0003677   0.0014732   0.0003619   0.0008120
           H3Z3         -0.0314507   0.0010327  -0.0252849  -0.0566573   0.0016984
           O4X4          0.0002324   0.0000020  -0.0000067  -0.0012384  -0.0000162
           O4Y4         -0.0000000   0.0002882   0.0000015  -0.0000074  -0.0017952
           O4Z4         -0.0001379   0.0000016  -0.0004110   0.0008670  -0.0000110
           H5X5         -0.0001291   0.0000251   0.0000118   0.0006792   0.0001020
           H5Y5          0.0000006  -0.0001939   0.0002584  -0.0000003   0.0008688
           H5Z5          0.0002385   0.0004132  -0.0000063  -0.0019290  -0.0033241
           H6X6         -0.0001267  -0.0000284  -0.0000019   0.0006499  -0.0000860
           H6Y6         -0.0000004  -0.0001946  -0.0002600  -0.0000110   0.0009055
           H6Z6          0.0002169  -0.0004213  -0.0000108  -0.0017553   0.0034107
                             H2Z2        H3X3        H3Y3        H3Z3        O4X4    
           H2Z2          0.6056344
           H3X3          0.0060869   0.5633803
           H3Y3         -0.0000779  -0.0169103   0.0010111
           H3Z3         -0.0143272   0.1809981  -0.0057762   0.1156148
           O4X4         -0.0004067  -0.0000686  -0.0000055   0.0002733   0.0168727
           O4Y4          0.0000171  -0.0000030  -0.0001938  -0.0000111   0.0009322
           O4Z4         -0.0004839   0.0001630  -0.0000038  -0.0001998   0.0164835
           H5X5          0.0002663   0.0000163  -0.0001774  -0.0000722  -0.0359183
           H5Y5         -0.0020559  -0.0000347   0.0002136  -0.0000820  -0.0441782
           H5Z5         -0.0003634  -0.0000740  -0.0001800   0.0001155  -0.0339971
           H6X6          0.0003754   0.0000279   0.0001870  -0.0000637  -0.0309182
           H6Y6          0.0020275   0.0000447   0.0002001   0.0000902   0.0404782
           H6Z6         -0.0003991  -0.0000633   0.0001802   0.0001229  -0.0315098
                             O4Y4        O4Z4        H5X5        H5Y5        H5Z5    
           O4Y4          0.0507563
           O4Z4         -0.0005298   0.0174066
           H5X5         -0.0554650  -0.0339990   0.1337302
           H5Y5         -0.0984677  -0.0407031   0.1995247   0.4239459
           H5Z5         -0.0516317  -0.0332315   0.1266596   0.1855183   0.1234207
           H6X6          0.0517618  -0.0321488   0.0091800  -0.0234944   0.0098314
           H6Y6         -0.1028947   0.0428220   0.0214127  -0.0319795   0.0220303
           H6Z6          0.0537302  -0.0337922   0.0085448  -0.0222563   0.0092403
                             H6X6        H6Y6        H6Z6    
           H6X6          0.1138191
           H6Y6         -0.1827023   0.4415616
           H6Z6          0.1179388  -0.1937070   0.1257008


 Mass Weighted 2nd Derivative Matrix Eigenvalues
     1-  10    0.000000    0.000000    0.000000    0.000000    0.000000    0.000000    0.000502    0.000704    0.000795    0.001105
    11-  18    0.004351    0.013969    0.115712    0.119897    0.635854    0.647630    0.672151    0.678022

 Mass Weighted 2nd Derivative Matrix Eigenvectors
              1             2             3             4             5             6             7             8
    1    0.42783573    0.09850769    0.00127268   -0.09141615    0.43676907    0.71092503   -0.00247612   -0.04878218
    2    0.84922879    0.05319959    0.03323251    0.03598025   -0.15295526   -0.41881799   -0.03888827   -0.00103750
    3   -0.04526065   -0.02386238    0.37997063    0.05448836    0.48845462   -0.23716572   -0.00853610   -0.19946664
    4    0.07408845    0.03060895   -0.02023501    0.05303458    0.08265333    0.12527581    0.01999966    0.40671128
    5    0.13818073    0.07602224    0.03363145    0.00212354   -0.04261293   -0.06721020    0.41022803   -0.02029635
    6   -0.01318333   -0.00544864    0.09457190    0.01704443    0.12138469   -0.06174204    0.00064377   -0.03159328
    7    0.11558709    0.01926840    0.01937334   -0.04179407    0.11031698    0.20135472   -0.01455141   -0.14709777
    8    0.16716992   -0.13574839    0.45428695    0.16264647   -0.30400853    0.12145944   -0.40541595    0.02352701
    9   -0.04119054   -0.00293998    0.07775920    0.08676724    0.09562941   -0.10966673    0.00420959    0.37072043
   10    0.00455103    0.16305356   -0.22433801    0.87385816    0.07867794    0.06006164    0.00966847    0.17211851
   11   -0.08799053    0.84927715    0.31981474   -0.06117102   -0.18766162    0.04117629    0.16865344   -0.00851396
   12   -0.06097737   -0.02215660    0.37076216    0.09269266    0.47435667   -0.26334328    0.00095853   -0.08389766
   13   -0.06930746   -0.06332719    0.30739120    0.37556737   -0.21062033    0.18821982    0.06159428   -0.38033572
   14   -0.02024983    0.30234769   -0.12850751   -0.09152667    0.08020280   -0.08892742   -0.26138616    0.01994077
   15    0.05622331   -0.06202236    0.09800388    0.00003160    0.12521269   -0.06399857    0.50622342    0.38583457
   16    0.04463824    0.15229364   -0.44484365    0.12472032    0.23176877   -0.20685091   -0.09569546   -0.37062597
   17   -0.02355833    0.29706767   -0.10892789   -0.08506020    0.06873386   -0.07853240   -0.26038537    0.01487975
   18   -0.05962713    0.04775207    0.10392518   -0.01903632    0.13710501   -0.02335570   -0.48088922    0.40390707
              9            10            11            12            13            14            15            16
    1   -0.00541476    0.01323303    0.03414036   -0.00367025    0.03560177   -0.21845912    0.09533387    0.02517293
    2   -0.23727747    0.00275639   -0.00066350   -0.12992107   -0.00084844    0.00531104   -0.00164088   -0.00057343
    3   -0.00611827   -0.64731431   -0.11285054   -0.00197457   -0.02696268    0.14265774   -0.18140816   -0.02436604
    4   -0.00278159   -0.04564606    0.53490132    0.02541701   -0.10943910    0.70720892   -0.00666137    0.00126841
    5    0.10959893   -0.00327635   -0.01447329    0.88672232    0.00301106   -0.02035036   -0.00491738   -0.00080249
    6   -0.00085012   -0.16351450   -0.00587693    0.00490106   -0.00320931    0.03677559    0.87579384    0.13730343
    7    0.02104335    0.01816499   -0.17851539    0.00187378   -0.03151437    0.19213587   -0.37197408   -0.10057547
    8    0.66574782   -0.00613098    0.00220785    0.06837365    0.00030043   -0.00175693    0.01136010    0.00305627
    9   -0.00343225   -0.21017638    0.54811492    0.00025918    0.09888145   -0.60654633   -0.14992699   -0.03826672
   10   -0.00261271   -0.03950578   -0.25210237   -0.00463532    0.18758014    0.01849119   -0.02504490    0.13616895
   11    0.01796357    0.00007583    0.00836677   -0.15747606   -0.00429772   -0.00029480    0.00062429   -0.00324898
   12    0.00922547    0.69032343    0.11811513    0.00107527    0.19350664    0.03535966   -0.02504747    0.13562534
   13   -0.37909750    0.06978102    0.25773508    0.02226604   -0.36347431   -0.04957934    0.05182602   -0.28626690
   14    0.06005120   -0.00348574   -0.01312833    0.09367106    0.41736465    0.06653418    0.09664053   -0.55750356
   15    0.29959445    0.09505911   -0.27956265   -0.27269502   -0.38075235   -0.06981674    0.04803342   -0.26931655
   16    0.39281563    0.06236565    0.25419767   -0.01646907   -0.38468601   -0.05313172    0.04679172   -0.25718102
   17    0.03830639    0.00161001   -0.00529459    0.09616778   -0.40017485   -0.06441060   -0.09903336    0.57047754
   18   -0.30769057    0.10729175   -0.28364846    0.27111742   -0.37839889   -0.06959957    0.04857919   -0.27295580
             17            18
    1   -0.20057238    0.00001634
    2    0.00663525   -0.00004837
    3   -0.17019655    0.00001405
    4   -0.03143432   -0.00001492
    5   -0.00141840   -0.00065110
    6    0.39622112   -0.00003192
    7    0.83099319   -0.00006769
    8   -0.02505465    0.00010196
    9    0.28259894   -0.00002482
   10    0.00529568   -0.00715447
   11   -0.00013915   -0.27260383
   12    0.00543005    0.00075291
   13   -0.01141450    0.30424514
   14   -0.02415186    0.53694104
   15   -0.01109196    0.28699061
   16   -0.01019963   -0.27572558
   17    0.02474571    0.54980196
   18   -0.01133010   -0.28998926

   Low Vibration      Wavenumber
        Nr             [1/cm] 
        1                0.00
        2                0.00
        3                0.00
        4                0.00
        5                0.00
        6                0.00

     Vibration        Wavenumber
        Nr             [1/cm] 
        1              115.22
        2              136.38
        3              144.93
        4              170.84
        5              339.10
        6              607.55
        7             1748.61
        8             1779.95
        9             4099.05
       10             4136.83
       11             4214.42
       12             4232.78

 FREQUENCIES * CALCULATION OF NORMAL MODES FOR HF-SCF


 Atomic Coordinates

  Nr  Atom  Charge       X              Y              Z

   1   O1    8.00    0.118089436   -0.003195459   -2.889504491
   2   H2    1.00    0.038308888   -0.011115243   -1.105370681
   3   H3    1.00   -1.573242290    0.047618550   -3.432433232
   4   O4    8.00   -0.103955767    0.002754338    2.735845967
   5   H5    1.00    0.692297011    1.407509084    3.483998228
   6   H6    1.00    0.618324860   -1.437011498    3.492477339

 Gradient norm at reference geometry: 0.37928D-03

 Normal Modes

                              1 A         2 A         3 A         4 A         5 A  
 Wavenumbers [cm-1]          115.22      136.38      144.93      170.84      339.10
 Intensities [km/mol]          0.00        0.00        0.00        0.00        0.00
 Intensities [relative]        0.00        0.00        0.00        0.00        0.00
           O1X1            -0.00062    -0.01220    -0.00135     0.00331     0.00854
           O1Y1            -0.00972    -0.00026    -0.05933     0.00069    -0.00017
           O1Z1            -0.00213    -0.04987    -0.00153    -0.16185    -0.02822
           H2X2             0.01992     0.40513    -0.00277    -0.04547     0.53282
           H2Y2             0.40863    -0.02022     0.10917    -0.00326    -0.01442
           H2Z2             0.00064    -0.03147    -0.00085    -0.16288    -0.00585
           H3X3            -0.01449    -0.14653     0.02096     0.01809    -0.17782
           H3Y3            -0.40384     0.02344     0.66316    -0.00611     0.00220
           H3Z3             0.00419     0.36928    -0.00342    -0.20936     0.54598
           O4X4             0.00242     0.04304    -0.00065    -0.00988    -0.06304
           O4Y4             0.04217    -0.00213     0.00449     0.00002     0.00209
           O4Z4             0.00024    -0.02098     0.00231     0.17261     0.02953
           H5X5             0.06135    -0.37886    -0.37762     0.06951     0.25673
           H5Y5            -0.26037     0.01986     0.05982    -0.00347    -0.01308
           H5Z5             0.50425     0.38433     0.29843     0.09469    -0.27848
           H6X6            -0.09532    -0.36918     0.39129     0.06212     0.25321
           H6Y6            -0.25937     0.01482     0.03816     0.00160    -0.00527
           H6Z6            -0.47902     0.40234    -0.30649     0.10687    -0.28255

                              6 A         7 A         8 A         9 A        10 A  
 Wavenumbers [cm-1]          607.55     1748.61     1779.95     4099.05     4136.83
 Intensities [km/mol]          0.00        0.00        0.00        0.00        0.00
 Intensities [relative]        0.00        0.00        0.00        0.00        0.00
           O1X1            -0.00092     0.00890    -0.05462     0.02384     0.00629
           O1Y1            -0.03249    -0.00021     0.00133    -0.00041    -0.00014
           O1Z1            -0.00049    -0.00674     0.03567    -0.04536    -0.00609
           H2X2             0.02532    -0.10901     0.70446    -0.00664     0.00126
           H2Y2             0.88327     0.00300    -0.02027    -0.00490    -0.00080
           H2Z2             0.00488    -0.00320     0.03663     0.87239     0.13677
           H3X3             0.00187    -0.03139     0.19139    -0.37053    -0.10018
           H3Y3             0.06811     0.00030    -0.00175     0.01132     0.00304
           H3Z3             0.00026     0.09850    -0.60419    -0.14934    -0.03812
           O4X4            -0.00116     0.04690     0.00462    -0.00626     0.03405
           O4Y4            -0.03938    -0.00107    -0.00007     0.00016    -0.00081
           O4Z4             0.00027     0.04838     0.00884    -0.00626     0.03391
           H5X5             0.02218    -0.36206    -0.04939     0.05162    -0.28515
           H5Y5             0.09331     0.41574     0.06628     0.09626    -0.55534
           H5Z5            -0.27163    -0.37927    -0.06955     0.04785    -0.26827
           H6X6            -0.01641    -0.38319    -0.05293     0.04661    -0.25618
           H6Y6             0.09579    -0.39862    -0.06416    -0.09865     0.56826
           H6Z6             0.27006    -0.37693    -0.06933     0.04839    -0.27189

                             11 A        12 A  
 Wavenumbers [cm-1]         4214.42     4232.78
 Intensities [km/mol]          0.00        0.00
 Intensities [relative]        0.00        0.00
           O1X1            -0.05015     0.00000
           O1Y1             0.00166    -0.00001
           O1Z1            -0.04256     0.00000
           H2X2            -0.03131    -0.00001
           H2Y2            -0.00141    -0.00065
           H2Z2             0.39468    -0.00003
           H3X3             0.82776    -0.00007
           H3Y3            -0.02496     0.00010
           H3Z3             0.28150    -0.00002
           O4X4             0.00132    -0.00179
           O4Y4            -0.00003    -0.06816
           O4Z4             0.00136     0.00019
           H5X5            -0.01137     0.30306
           H5Y5            -0.02406     0.53485
           H5Z5            -0.01105     0.28587
           H6X6            -0.01016    -0.27465
           H6Y6             0.02465     0.54766
           H6Z6            -0.01129    -0.28886


 Normal Modes of low/zero frequencies

                                  1           2           3           4           5
 Wavenumbers [cm-1]            0.00        0.00        0.00        0.00        0.00
 Intensities [km/mol]          0.00        0.00        0.00        0.00        0.00
 Intensities [relative]        0.00        0.00        0.00        0.00        0.00
           O1X1             0.10698     0.02463     0.00032    -0.02286     0.10921
           O1Y1             0.21234     0.01330     0.00831     0.00900    -0.03824
           O1Z1            -0.01132    -0.00597     0.09501     0.01362     0.12213
           H2X2             0.07380     0.03049    -0.02016     0.05283     0.08233
           H2Y2             0.13764     0.07573     0.03350     0.00212    -0.04245
           H2Z2            -0.01313    -0.00543     0.09420     0.01698     0.12091
           H3X3             0.11514     0.01919     0.01930    -0.04163     0.10989
           H3Y3             0.16652    -0.13522     0.45252     0.16201    -0.30283
           H3Z3            -0.04103    -0.00293     0.07746     0.08643     0.09526
           O4X4             0.00114     0.04077    -0.05609     0.21850     0.01967
           O4Y4            -0.02200     0.21235     0.07997    -0.01530    -0.04692
           O4Z4            -0.01525    -0.00554     0.09271     0.02318     0.11861
           H5X5            -0.06904    -0.06308     0.30620     0.37411    -0.20980
           H5Y5            -0.02017     0.30117    -0.12801    -0.09117     0.07989
           H5Z5             0.05600    -0.06178     0.09762     0.00003     0.12473
           H6X6             0.04446     0.15170    -0.44311     0.12424     0.23087
           H6Y6            -0.02347     0.29591    -0.10850    -0.08473     0.06847
           H6Z6            -0.05940     0.04757     0.10352    -0.01896     0.13657

                                  6
 Wavenumbers [cm-1]            0.00
 Intensities [km/mol]          0.00
 Intensities [relative]        0.00
           O1X1             0.17776
           O1Y1            -0.10472
           O1Z1            -0.05930
           H2X2             0.12479
           H2Y2            -0.06695
           H2Z2            -0.06150
           H3X3             0.20057
           H3Y3             0.12099
           H3Z3            -0.10924
           O4X4             0.01502
           O4Y4             0.01030
           O4Z4            -0.06585
           H5X5             0.18749
           H5Y5            -0.08858
           H5Z5            -0.06375
           H6X6            -0.20605
           H6Y6            -0.07823
           H6Z6            -0.02326


 Frequencies dumped to record   5400.2
 Frequency information read from record  5400.2

 Zero point energy:  0.04949469 [H]    10862.83 [1/CM]      129.95 [KJ/MOL]


 **********************************************************************************************************************************
 DATASETS  * FILE   NREC   LENGTH (MB)   RECORD NAMES
              1      19       33.07       500      610      700      900      950      970     1000      129      960     1100   
                                          VAR    BASINP    GEOM    SYMINP    ZMAT    AOBASIS   BASIS     P2S    ABASIS      S 
                                         1400     1410     1200     1210     1080     1600     1650     1300     1700   
                                           T        V       H0       H01     AOSYM     SMH    MOLCAS    ERIS     OPER   

              2       7        0.57       700     1000      520     2100     5300     5450     5400   
                                         GEOM     BASIS   MCVARS     RHF     HESS     NMOD     FREQ   

              4       5        1.12      4100     4000     4200     4300     4400   

 PROGRAMS   *        TOTAL      FREQ      OPTG    HF-SCF       INT
 CPU TIMES  *        18.03      4.23     13.30      0.12      0.27
 REAL TIME  *        19.55 SEC
 DISK USED  *        51.72 MB
 **********************************************************************************************************************************

 Dump information in style MOLDEN to water_dimer.molden                                                              

 Molecular orbitals read from record     2100.2  Type=RHF/CANONICAL  
 Occupation numbers read from record     2100.2  Type=RHF/RHF  
 Orbital energies read from record       2100.2  Type=RHF/CANONICAL  
 Redundancy group numbers read from rec  2100.2  Type=RHF/RHF  

 DUMP ORBITAL  1.1 AS ORBITAL    1  occ=    2.0000  eig=  -20.5725  GROUP=   2
 DUMP ORBITAL  2.1 AS ORBITAL    2  occ=    2.0000  eig=  -20.5082  GROUP=   2
 DUMP ORBITAL  3.1 AS ORBITAL    3  occ=    2.0000  eig=   -1.3786  GROUP=   2
 DUMP ORBITAL  4.1 AS ORBITAL    4  occ=    2.0000  eig=   -1.3175  GROUP=   2
 DUMP ORBITAL  5.1 AS ORBITAL    5  occ=    2.0000  eig=   -0.7471  GROUP=   2
 DUMP ORBITAL  6.1 AS ORBITAL    6  occ=    2.0000  eig=   -0.6906  GROUP=   2
 DUMP ORBITAL  7.1 AS ORBITAL    7  occ=    2.0000  eig=   -0.6048  GROUP=   2
 DUMP ORBITAL  8.1 AS ORBITAL    8  occ=    2.0000  eig=   -0.5466  GROUP=   2
 DUMP ORBITAL  9.1 AS ORBITAL    9  occ=    2.0000  eig=   -0.5247  GROUP=   2
 DUMP ORBITAL 10.1 AS ORBITAL   10  occ=    2.0000  eig=   -0.4706  GROUP=   2

 Total charge:      20.000000
 Frequency information read from record  5400.2

 **********************************************************************************************************************************

 HF/6-311G(D,P) energy=   -152.102912677620

    OPTG(HF-SCF)          HF-SCF
   -152.10291268   -152.09521052
 **********************************************************************************************************************************
 Molpro calculation terminated
