[Molden Format]
[Molpro variables]
_NUMVAR=  1076.000000000000    
_AVOGAD= 0.6022140760000000E+24
_BOLTZ= 0.1380649000000000E-22
_CLIGHTSI=  299792458.0000000    
_JOULE= 0.4359744722207100E-17
_JPCAL=  4.184000000000000    
_PLANCK= 0.6626070150000000E-33
_BOHR= 0.5291772109030000E-10
_ECHARG= 0.1602176634000000E-18
_ENULL= 0.8854187812800001E-11
_MU= 0.1660539066600000E-26
_EMASS= 0.9109383701500001E-30
_AMU2AU=  1822.888486217313    
_CLIGHT=  29979245800.00000    
_EV= 0.3674932217565494E-01
_KJOULE= 0.3808798847133432E-03
_KJOULE/MOL= 0.3808798847133432E-03
_CM= 0.4556335252912009E-05
_CM-1= 0.4556335252912009E-05
_DEB2SI= 0.3335640951981520E-29
_KCAL= 0.1593601437640628E-02
_KCAL/MOL= 0.1593601437640628E-02
_KELVIN= 0.3166811563455608E-05
_HERTZ= 0.1519829846057038E-15
_HZ= 0.1519829846057038E-15
_TOA= 0.5291772109030000    
_TOANG= 0.5291772109030000    
_TORAD= 0.1745329251994330E-01
_TOCM=  219474.6313631965    
_TODEBYE=  2.541746473194078    
_TOE= 0.4803204712570263E-09
_TOEV=  27.21138624598803    
_TOHERTZ=  6579683920501656.    
_TOHZ=  6579683920501656.    
_TOK=  315775.0248040668    
_TOKCAL=  627.5094740630558    
_TOKELVIN=  315775.0248040668    
_TOKJ=  2625.499639479825    
_TOKJOULE=  2625.499639479825    
_TOKG= 0.1660539066600000E-26
_ANG=  1.889726124625770    
_ANGSTROM=  1.889726124625770    
_RPAREF=  0.000000000000000    
_RPADISS=  0.000000000000000    
_IGNORE_UNDEF=  2.000000000000000    
_STRICTCHECK=  0.000000000000000    
!SEWARD=  0.000000000000000    
!MULTI=  0.000000000000000    
!DFMULTI=  0.000000000000000    
!NUMHESS=  0.000000000000000    
_SEW_ONEEL=  0.000000000000000    
_CPPDONE=FALSE
_DKROLL_DONE=  0.000000000000000    
_FNUC_DONE=  0.000000000000000    
_FOCKDONE=TRUE
_GRADONE=FALSE
_HESSDONE=TRUE
_INTDONE=TRUE
_SCFDONE=TRUE
_MODUL_BLOCK=FALSE
_MODUL_SLATER=TRUE
_MODUL_MRCC=FALSE
_MODUL_NBO6=FALSE
_MODUL_NECI=FALSE
_MODUL_AIMS=TRUE
_MODUL_HDF5=FALSE
_MODUL_GECCO=FALSE
_ISWINDOWS=FALSE
_MRCC_EXEC=
_FITC_AO_SAVED=FALSE
_FITC_MO_SAVED=FALSE
_LSTYP=SEWARD
_INTYP=INTS
_GEOMTYP=XYZ
_GRADTYP=ALASKA
_DIRECT=FALSE
_DKHO= -1.000000000000000    
_FNUC=  0.000000000000000    
_SYNCM=  0.000000000000000    
_BASIS=6-311G(D,P)
_ZCENTRE=MASS
_ZORIENT=  1.000000000000000    
_NELEC=  23.00000000000000    
!SPIN=  1.000000000000000    
_OPTCONV= 0.3825448534212635E-03
_QSDSTEP=  0.000000000000000    
_QSDIRC=  0.000000000000000    
_PROGRAM=FREQ
_CPUSTEP=  0.000000000000000    
_SYSSTEP=  0.000000000000000    
_WALLSTEP=  0.000000000000000    
!DFSCF=  0.000000000000000    
!SCSGRD=  0.000000000000000    
_NCEN=  6.000000000000000    
_CPUTOT=  36.89000000000000    
_CPUSORT= 0.7999999999999829E-01
_SYSSORT= 0.3999999999999959E-01
_WALLSORT= 0.1099999994039536    
_DFTEXFAC=  1.000000000000000    
_DMX= 0.5052925203281233E-01
_DMY=  0.000000000000000    
_DMZ= -1.115879459176082    
_DMX_SCF= 0.5052925203281233E-01
_DMY_SCF=  0.000000000000000    
_DMZ_SCF= -1.115879459176082    
_FREQUENCIES= 0.5342116295821695E-04
_HOMO=  10.10000000000000    
_EHOMO=-0.3613211506636306    
_LUMO=  3.200000000000000    
_ELUMO= 0.1554613751183632    
_ENERGY= -152.3348177666433    
_ENERGY_METHOD=HF
_ENERGY_BASIS=6-311G(D,P)
_GEOMETRY_METHOD=
_GEOMETRY_BASIS=
_ENUC=  63.57618834887845    
_FREQSTEP=  27.00000000000000    
_GRADENERG= -152.3347722234498    
_GRADEXFAC=  9999.000000000000    
_GRADMETHOD=  2.000000000000000    
_NMRMETHOD=  0.000000000000000    
_NMRMAGNET=  0.000000000000000    
_VIRIAL=-0.2416688361415694E-01
!GRID_FREEZE= -1.000000000000000    
!NEESE_INDEX=  0.000000000000000    
_ITERATIONS=  2.000000000000000    
_LASTNELEC=  23.00000000000000    
_LASTSPIN=  1.000000000000000    
_LASTSYM=  1.000000000000000    
_MPP_PROG=  0.000000000000000    
_MSNSTATES=  0.000000000000000    
_RS2PHASE=  0.000000000000000    
_NPROC_MPP=  1.000000000000000    
_NPROC_SMP=  6.000000000000000    
_NUMSTEP=  0.000000000000000    
_OPTCONVMX= 0.3131739950000789E-03
_OPTCONVRMS= 0.1352500299810946E-03
_OPTGRAD= 0.8262832485365603E-04
_OPTGRADMX= 0.7151301428535364E-04
_OPTGRADRMS= 0.2921352441105256E-04
!GMAXLAST= 0.7151301428535364E-04
!DMAXLAST= 0.3131739950000789E-03
!DELAST= 0.5018727904371190E-06
_OPTSTEP=  4.000000000000000    
_ORBITAL=  2100.200000000000    
_PI=  3.141592653589793    
_SEIG_MIN= 0.3736125070623544E-02
_SEWPROP=TRUE
_STATUS=  1.000000000000000    
_SYSTOT=  2.460000000000000    
_VERSION=  2024001.000000000    
_WALLTOT=  39.36000000000000    
_ZPE= 0.4611349378374215E-01
_DATE=30-Sep-24
_LASTORB=0
_OUTPUT=/home/lme/Theoretische_Chemie/Nomodeco/ase_databank_integration/CH3CO.molpro/run/CH3CO_2.molpro/CH3CO_2.out
_PGROUP=Cs
_TIME=14:48:44
_LIBMOL=/usr/local/molpro/molpro_2024.1.0_sockets/lib/
_VIGRDC=  0.000000000000000    
!VIBCNT=  0.000000000000000    
!SURFREC=  0.000000000000000    
!XSURFREC=  0.000000000000000    
!XPOLYREC=  0.000000000000000    
!ROTREC=  0.000000000000000    
!POLYREC=  0.000000000000000    
!DIPREC=  0.000000000000000    
!DIP4DREC=  0.000000000000000    
!DIPROT=  0.000000000000000    
!DIP4DROT=  0.000000000000000    
!PTREC=  0.000000000000000    
!PT4DREC=  0.000000000000000    
!VSCFREC=  0.000000000000000    
!VCIREC=  0.000000000000000    
!PVCIREC=  0.000000000000000    
!VMP2REC=  0.000000000000000    
!VMCSCFREC=  0.000000000000000    
!VMRCIREC=  0.000000000000000    
!VIBSTATEREC=  0.000000000000000    
!VIBSTATECNT=  0.000000000000000    
!VIBINFO=  0.000000000000000    
!GAREC=  0.000000000000000    
!SCFORB=  21002.00000000000    
!DEFCORE=  3.000000000000000    
!SCORE=  0.000000000000000    
!NEWMOL=  0.000000000000000    
!NEWSYM=  0.000000000000000    
_SLFILES=slscratch
_NGSSTO=  9.000000000000000    
_SIN=SIN
_COS=COS
_TAN=TAN
_ACOS=ACOS
_ASIN=ASIN
_ATAN=ATAN
_COSH=COSH
_SINH=SINH
_TANH=TANH
_ABS=ABS
_MOD=MOD
_ERF=ERF
_REFC=REFC
_ERFC=ERFC
_HYPOT=HYPOT
_J0=J0
_J1=J1
_JN=JN
_GAMMA=GAMMA
_LGAMMA=LGAMMA
_Y0=Y0
_Y1=Y1
_YN=YN
_EXP=EXP
_LOG=LOG
_LOG10=LOG10
_SQRT=SQRT
_INT=INT
_NINT=NINT
_MAX=MAX
_MIN=MIN
_COSMO=  0.000000000000000    
_COSMOIT=  0.000000000000000    
_COSMOES=  0.000000000000000    
_COSMOEDS=  0.000000000000000    
_COSMOEC=  0.000000000000000    
_COSMOEDCORR=  0.000000000000000    
_FEPSI=  1.000000000000000    
_SL_IsMM=  0.000000000000000    
_SL_NSYM=  2.000000000000000    
_SL_System_BitSw=  0.000000000000000    
_SL_Unique_atoms=  0.000000000000000    
_SL_GRAD=  0.000000000000000    
_SL_MAXUPD_Hess=  5.000000000000000    
_SL_N_PRINT_COD=  5.000000000000000    
_SL_PRINT_CODES=  0.000000000000000    
_SL_BasType=  0.000000000000000    
_SL_Energy_Pred=  0.000000000000000    
_SL_New_Coords=  0.000000000000000    
_SL_Total_Nuclea=  0.000000000000000    
_SL_Highest_Mltp=  0.000000000000000    
_SL_Ref_Geom=  0.000000000000000    
_SL_Symmetry_ope=  11.00000000000000    
_SL_agrad=  0.000000000000000    
_SL_GrdMax=  0.000000000000000    
_SL_GrdNorm=  0.000000000000000    
_SL_GrdRMS=  0.000000000000000    
_SL_Hss_Q=  0.000000000000000    
_SL_Hss_X=  0.000000000000000    
_SL_BMxOld=  0.000000000000000    
_SL_KtB=  0.000000000000000    
_SL_TROld=  0.000000000000000    
_SL_No_of_Intern=  0.000000000000000    
_SL_Hess=  0.000000000000000    
_SL_K=  0.000000000000000    
!LATTICE= -1.000000000000000    
!NEWLATTICE=  0.000000000000000    
!LATGRAD_VAR=FALSE
!SEW_LATTICE=  1.000000000000000    
!AIC_ONEEL=  0.000000000000000    
!LOCAL=  0.000000000000000    
!SAVEDOM= -1.000000000000000    
!RESTDOM= -1.000000000000000    
!SAVEDOM_HF= -1.000000000000000    
!RESTDOM_HF= -1.000000000000000    
!HESSREC=  5300.200000000000    
!FREQREC=  5400.200000000000    
!NMODREC=  5450.200000000000    
!GTASKS=  0.000000000000000    
!HTASKS=  0.000000000000000    
!SAVEDOM_EOM= -1.000000000000000    
!RESTDOM_EOM= -1.000000000000000    
!GRADSTATE= -1.000000000000000    
!DEBUG=  0.000000000000000    
!CFIT_CPHF=  0.000000000000000    
!RDOMAUX_CPHF=  0.000000000000000    
!THRAO_CPHF= 0.1000000000000000E-11
!THRMO_CPHF= 0.1000000000000000E-11
!THROV_CPHF= 0.1000000000000000E-13
!THRSW_CPHF= 0.1000000000000000E-11
!THRPROD_CPHF= 0.1000000000000000E-11
!THRAOPR_CPHF= 0.1000000000000000E-11
!CFIT_SCFGRD=  0.000000000000000    
!RDOMAUX_SCFGRD=  0.000000000000000    
!THRAO_SCFGRD= 0.1000000000000000E-11
!THRMO_SCFGRD= 0.1000000000000000E-11
!THROV_SCFGRD= 0.1000000000000000E-13
!THRSW_SCFGRD= 0.1000000000000000E-11
!THRPROD_SCFGRD= 0.1000000000000000E-11
!THRAOPR_SCFGRD= 0.1000000000000000E-11
!LOCFIT_SCF=  0.000000000000000    
!LOCFIT_MP2=  0.000000000000000    
_RIDOM=  0.000000000000000    
!CC2_METHOD=  0.000000000000000    
_BASIS2006=FALSE
_SVDDEL= -1.000000000000000    
_SVDDELA= -1.000000000000000    
_SVDDELP= -1.000000000000000    
_SVDDELF= -1.000000000000000    
_SVDDELS= -1.000000000000000    
_SVDDEL_ABS= -1.000000000000000    
_SVDDELA_ABS= -1.000000000000000    
_SVDDELP_ABS= -1.000000000000000    
_SVDDELF_ABS= -1.000000000000000    
_SVDDELS_ABS= -1.000000000000000    
_MAXBASIS=  0.000000000000000    
!OPT_CONICAL=  0.000000000000000    
!CLEARSP_JGRID=  0.000000000000000    
_GRDHYBR=  0.000000000000000    
_STATEGRAD=  1.000000000000000    
_4EXT_NDISKS=  1.000000000000000    
!EMBEDFLAG=  1.000000000000000    
!EMBED=FALSE
!EMBED_F12=FALSE
!EMBEDNUC=  0.000000000000000    
_EMBEDENERGY=  0.000000000000000    
!EMBED_DFC=FALSE
!NUM_VOIDS=  0.000000000000000    
_IBODY=  0.000000000000000    
_EMBE_CORR=  0.000000000000000    
!EMBED_PROJ=FALSE
!EMB_PROJ_ZMU=  1000000.000000000    
!CORRECTION_HF=  0.000000000000000    
!EMBED_AORB=  0.000000000000000    
!EMBED_NACORR=  0.000000000000000    
!EMBED_MP2=FALSE
!EMBED_TRUNC_PERTURBATION=FALSE
!EMBED_FROZEN=  0.000000000000000    
!EMBED_ACTIVE=  0.000000000000000    
_CHANGE_BASIS=FALSE
_RESTORE_BASIS=FALSE
_FIX_EMBED_GUESS=FALSE
_EMBED_SCF=FALSE
_NEOBAS=FALSE
_NEOOVE=FALSE
_PRINEO=FALSE
_HUZINAGA_T=FALSE
_HUZINAGA_F=FALSE
_HUZINAGA=FALSE
_HUZINAGA_CORRECT=FALSE
!FASTLATGRAD=  1.000000000000000    
!FASTVLAMBDA= -1.000000000000000    
!IFORCE= -1.000000000000000    
!USESYM= -1.000000000000000    
_SINDEX=  0.000000000000000    
_AVDOM_OSV=  0.000000000000000    
_AVDOM_PNO=  0.000000000000000    
_AVDOM_PNOCC=  0.000000000000000    
_AVDOM_TNO=  0.000000000000000    
_AVDOM_TNOIT=  0.000000000000000    
_AVDOM_PAO=  0.000000000000000    
_AVDOM_LMO=  0.000000000000000    
_CC2OSV_FLAG=  0.000000000000000    
_EOMCCSD_CONV=FALSE
_TMADC2_FLAG=FALSE
_PROPADC2_FLAG=FALSE
_LEN_VirQ=  0.000000000000000    
_GRDCC2LR_FLAG=FALSE
_GRDADC2_FLAG=FALSE
_RO_VGLOBAL=  0.000000000000000    
_OPT=FALSE
_FREQ=FALSE
_HESS=FALSE
_CMRCC_callName=EMPTY
_CMRCC_callCount=  0.000000000000000    
_GECCO_CIROOT=  1.000000000000000    
_SYM_CATION=  1.000000000000000    
_MON_A=FALSE
_MON_B=FALSE
_MAXGEOM=  100.0000000000000    
!MAXGEOM=  100.0000000000000    
_NCORE=  0.000000000000000    
_NLARGECORE=  0.000000000000000    
GX1=-0.1191493412123055    
GY1=  0.000000000000000    
GZ1= -1.271291812109845    
GX2= 0.4029294017946007    
GY2=  0.000000000000000    
GZ2= 0.1449190143487393    
GX3= -1.203620596683834    
GY3=  0.000000000000000    
GZ3= -1.270879494261447    
GX4= 0.2604196190574599    
GY4= 0.8767779553856042    
GZ4= -1.782734757618212    
GX5= 0.2604196190574599    
GY5=-0.8767779553856042    
GZ5= -1.782734757618212    
GX6=-0.1698813312664983    
GY6=  0.000000000000000    
GZ6=  1.149782462897913    
CX1=-0.2251596228208436    
CY1=  0.000000000000000    
CZ1= -2.402393349366810    
CX2= 0.7614262169510906    
CY2=  0.000000000000000    
CZ2= 0.2738572473698295    
HX3= -2.274513285691099    
HY3=  0.000000000000000    
HZ3= -2.401614181557042    
HX4= 0.4921217574979731    
HY4=  1.656870207788144    
HZ4= -3.368880444749526    
HX5= 0.4921217574979731    
HY5= -1.656870207788144    
HZ5= -3.368880444749526    
OX6=-0.3210291897805065    
OY6=  0.000000000000000    
OZ6=  2.172773957774746    
[Atoms] Angs
C     1    6        -0.1191493412        0.0000000000       -1.2712918121
C     2    6         0.4029294018        0.0000000000        0.1449190143
H     3    1        -1.2036205967        0.0000000000       -1.2708794943
H     4    1         0.2604196191        0.8767779554       -1.7827347576
H     5    1         0.2604196191       -0.8767779554       -1.7827347576
O     6    8        -0.1698813313        0.0000000000        1.1497824629
[GTO]
   1 0
 s    6  1.00
  0.4563240000D+04  0.1966650249D-02
  0.6820240000D+03  0.1523060193D-01
  0.1549730000D+03  0.7612690966D-01
  0.4445530000D+02  0.2608010331D+00
  0.1302900000D+02  0.6164620782D+00
  0.1827730000D+01  0.2210060280D+00
 s    3  1.00
  0.2096420000D+02  0.1146600807D+00
  0.4803310000D+01  0.9199996477D+00
  0.1459330000D+01 -0.3030682134D-02
 s    1  1.00
  0.4834560000D+00  0.1000000000D+01
 s    1  1.00
  0.1455850000D+00  0.1000000000D+01
 p    3  1.00
  0.2096420000D+02  0.4024869267D-01
  0.4803310000D+01  0.2375939567D+00
  0.1459330000D+01  0.8158538515D+00
 p    1  1.00
  0.4834560000D+00  0.1000000000D+01
 p    1  1.00
  0.1455850000D+00  0.1000000000D+01
 d    1  1.00
  0.6260000000D+00  0.1000000000D+01
  
   2 0
 s    6  1.00
  0.4563240000D+04  0.1966650249D-02
  0.6820240000D+03  0.1523060193D-01
  0.1549730000D+03  0.7612690966D-01
  0.4445530000D+02  0.2608010331D+00
  0.1302900000D+02  0.6164620782D+00
  0.1827730000D+01  0.2210060280D+00
 s    3  1.00
  0.2096420000D+02  0.1146600807D+00
  0.4803310000D+01  0.9199996477D+00
  0.1459330000D+01 -0.3030682134D-02
 s    1  1.00
  0.4834560000D+00  0.1000000000D+01
 s    1  1.00
  0.1455850000D+00  0.1000000000D+01
 p    3  1.00
  0.2096420000D+02  0.4024869267D-01
  0.4803310000D+01  0.2375939567D+00
  0.1459330000D+01  0.8158538515D+00
 p    1  1.00
  0.4834560000D+00  0.1000000000D+01
 p    1  1.00
  0.1455850000D+00  0.1000000000D+01
 d    1  1.00
  0.6260000000D+00  0.1000000000D+01
  
   3 0
 s    3  1.00
  0.3386500000D+02  0.2549381454D-01
  0.5094790000D+01  0.1903731086D+00
  0.1158790000D+01  0.8521614860D+00
 s    1  1.00
  0.3258400000D+00  0.1000000000D+01
 s    1  1.00
  0.1027410000D+00  0.1000000000D+01
 p    1  1.00
  0.7500000000D+00  0.1000000000D+01
  
   4 0
 s    3  1.00
  0.3386500000D+02  0.2549381454D-01
  0.5094790000D+01  0.1903731086D+00
  0.1158790000D+01  0.8521614860D+00
 s    1  1.00
  0.3258400000D+00  0.1000000000D+01
 s    1  1.00
  0.1027410000D+00  0.1000000000D+01
 p    1  1.00
  0.7500000000D+00  0.1000000000D+01
  
   5 0
 s    3  1.00
  0.3386500000D+02  0.2549381454D-01
  0.5094790000D+01  0.1903731086D+00
  0.1158790000D+01  0.8521614860D+00
 s    1  1.00
  0.3258400000D+00  0.1000000000D+01
 s    1  1.00
  0.1027410000D+00  0.1000000000D+01
 p    1  1.00
  0.7500000000D+00  0.1000000000D+01
  
   6 0
 s    6  1.00
  0.8588500000D+04  0.1895150083D-02
  0.1297230000D+04  0.1438590063D-01
  0.2992960000D+03  0.7073200310D-01
  0.8737710000D+02  0.2400010105D+00
  0.2567890000D+02  0.5947970261D+00
  0.3740040000D+01  0.2808020123D+00
 s    3  1.00
  0.4211750000D+02  0.1138890124D+00
  0.9628370000D+01  0.9208111006D+00
  0.2853320000D+01 -0.3274470358D-02
 s    1  1.00
  0.9056610000D+00  0.1000000000D+01
 s    1  1.00
  0.2556110000D+00  0.1000000000D+01
 p    3  1.00
  0.4211750000D+02  0.3651139738D-01
  0.9628370000D+01  0.2371529830D+00
  0.2853320000D+01  0.8197019412D+00
 p    1  1.00
  0.9056610000D+00  0.1000000000D+01
 p    1  1.00
  0.2556110000D+00  0.1000000000D+01
 d    1  1.00
  0.1292000000D+01  0.1000000000D+01


[MO]
 Sym=      1.1
 Ene=     -20.5817
 Spin= Alpha
 Occup=    2.000000
1 0.000001707415742
2 0.000002509903051
3 0.000000673026460
4 -0.000012888618006
5 -0.000000470816990
6 0.0
7 -0.000005613949068
8 0.000001182735045
9 0.0
10 -0.000009180215998
11 0.000205245371543
12 0.0
13 -0.000075732527349
14 -0.000005720211719
15 0.000003527762092
16 0.000002192449627
17 0.0
18 0.000005780963228
19 0.0
20 0.000006093027488
21 -0.000072552308531
22 0.000308881624044
23 0.000583254499520
24 -0.000052768438768
25 0.0
26 0.000100742571414
27 -0.000126254324415
28 0.0
29 0.000263125745966
30 -0.000261012625001
31 0.0
32 0.000388934012971
33 -0.000014859878721
34 -0.000053785502147
35 0.000068645380868
36 0.0
37 -0.000116867636841
38 0.0
39 -0.000004386494332
40 0.000072799043069
41 0.000072472701214
42 0.000008941601586
43 0.0
44 -0.000012224723992
45 0.000002720861800
46 -0.000026180608229
47 -0.000027233834711
48 -0.000009958042530
49 0.000011095659053
50 0.000007322661403
51 0.000002720861800
52 -0.000026180608229
53 -0.000027233834711
54 -0.000009958042530
55 -0.000011095659053
56 0.000007322661403
57 0.55145109287027
58 0.47169141598430
59 0.005522709960784
60 -0.001035354643426
61 0.000819909706278
62 0.0
63 -0.001460478933756
64 -0.000253131579885
65 0.0
66 0.000426253334162
67 -0.000069183738347
68 0.0
69 0.000103091766157
70 0.000049741812840
71 -0.000161467562616
72 0.000111725749775
73 0.0
74 -0.000031534167544
75 0.0
 Sym=      2.1
 Ene=     -11.3255
 Spin= Alpha
 Occup=    2.000000
1 0.002539312926338
2 0.002045583632066
3 0.000297463326759
4 0.000102433808397
5 0.000093050177858
6 0.0
7 0.000152871756988
8 -0.000034144612103
9 0.0
10 0.000254380124624
11 0.000040571294765
12 0.0
13 0.000148861451526
14 -0.000090921807804
15 -0.000034492386508
16 0.000125414194313
17 0.0
18 -0.000038854534782
19 0.0
20 0.56340763535448
21 0.46673659558090
22 0.003530211508231
23 -0.000072153285547
24 -0.001016728382648
25 0.0
26 0.000396863397391
27 -0.000101590963502
28 0.0
29 0.000176818635053
30 -0.000210543744445
31 0.0
32 0.000371046736435
33 -0.000069665272636
34 -0.000497651576933
35 0.000567316849569
36 0.0
37 -0.000342419814665
38 0.0
39 -0.000011611184995
40 -0.000047809484498
41 -0.000059729307723
42 -0.000012125302220
43 0.0
44 -0.000030293067550
45 -0.000001320300079
46 0.000058969699557
47 0.000048394962334
48 0.000017671273858
49 -0.000014894871565
50 0.000035884988257
51 -0.000001320300079
52 0.000058969699557
53 0.000048394962334
54 0.000017671273858
55 0.000014894871565
56 0.000035884988257
57 -0.000272373046698
58 -0.000391148986698
59 0.000753638710734
60 -0.000549228613695
61 0.000248043525360
62 0.0
63 -0.000335386852681
64 0.000325959019565
65 0.0
66 -0.000500822819758
67 -0.000079704442668
68 0.0
69 0.000218092479397
70 -0.000108345084695
71 -0.000086936933255
72 0.000195282017950
73 0.0
74 -0.000186479618286
75 0.0
 Sym=      3.1
 Ene=     -11.2566
 Spin= Alpha
 Occup=    2.000000
1 0.56331433449182
2 0.46653238056363
3 0.004566313736063
4 -0.001875664324785
5 0.000224990425206
6 0.0
7 0.000262422249205
8 -0.000182304461506
9 0.0
10 -0.000264252325337
11 -0.000072966542899
12 0.0
13 -0.000224820046671
14 0.000064969835580
15 0.000060941916876
16 -0.000125911752456
17 0.0
18 -0.000100982596973
19 0.0
20 -0.002652835915458
21 -0.002275496200879
22 0.000303745261580
23 0.000737411050080
24 -0.000018135669526
25 0.0
26 -0.000119577467144
27 -0.000072691142866
28 0.0
29 -0.000344376806829
30 -0.000115936228217
31 0.0
32 -0.000325245580782
33 -0.000054869860041
34 -0.000065890126085
35 0.000120759986126
36 0.0
37 0.000103341016845
38 0.0
39 0.000347821427165
40 0.000106972903236
41 0.000288128640108
42 -0.000024311667796
43 0.0
44 0.000016909839923
45 0.000349728557344
46 0.000156607563584
47 0.000239668300103
48 0.000014428937080
49 0.000008257452741
50 0.000021490463044
51 0.000349728557344
52 0.000156607563584
53 0.000239668300103
54 0.000014428937080
55 -0.000008257452741
56 0.000021490463044
57 0.000005361000750
58 0.000007306310569
59 -0.000007961795559
60 -0.000016620272422
61 -0.000010925714951
62 0.0
63 0.000010309923531
64 -0.000027510925409
65 0.0
66 -0.000005333714255
67 0.000019526650462
68 0.0
69 0.000024114188237
70 -0.000006810897241
71 0.000000791432765
72 0.000006019464476
73 0.0
74 0.000001639976942
75 0.0
 Sym=      4.1
 Ene=      -1.4410
 Spin= Alpha
 Occup=    2.000000
1 -0.007020739762863
2 -0.011559759723822
3 0.030468692060305
4 -0.002784426412618
5 0.000730497195263
6 0.0
7 0.007519254463434
8 0.001061573586216
9 0.0
10 0.018433533414614
11 -0.011840726081458
12 0.0
13 -0.000302168175353
14 -0.003387583354194
15 -0.001968130467296
16 0.005355713821490
17 0.0
18 -0.000160934530338
19 0.0
20 -0.061544829442940
21 -0.098241452943888
22 0.24887743022962
23 0.037945784144838
24 -0.050067000309155
25 0.0
26 0.078994005825488
27 -0.066189028675050
28 0.0
29 0.10017701132497
30 0.007083790050025
31 0.0
32 -0.020298446595883
33 -0.004590491188018
34 -0.015712795775626
35 0.020303286963645
36 0.0
37 -0.026376213587994
38 0.0
39 0.004217732675984
40 0.002974242005355
41 -0.004421111134399
42 0.001596009233646
43 0.0
44 0.000146136631190
45 0.002055259347198
46 0.006675055083552
47 -0.000440098133497
48 0.000100890042856
49 -0.001568887688142
50 0.000856427208107
51 0.002055259347198
52 0.006675055083552
53 -0.000440098133497
54 0.000100890042856
55 0.001568887688142
56 0.000856427208107
57 -0.10644767753357
58 -0.17764413527352
59 0.49902459983821
60 0.34744887943318
61 0.032662886933560
62 0.0
63 -0.061222482081640
64 0.049216246966424
65 0.0
66 -0.093599247771846
67 0.018710369191071
68 0.0
69 -0.035474253213717
70 -0.003466584521363
71 -0.009773356403118
72 0.013239940924481
73 0.0
74 -0.014732233295948
75 0.0
 Sym=      5.1
 Ene=      -1.0233
 Spin= Alpha
 Occup=    2.000000
1 -0.098313934533354
2 -0.16222708790380
3 0.41204429632770
4 0.23364743038979
5 0.007212389827599
6 0.0
7 0.012226769255831
8 0.017896230469846
9 0.0
10 0.035777371789697
11 -0.000934541731034
12 0.0
13 -0.002770294651782
14 -0.002576852591372
15 -0.002744031336098
16 0.005320883927469
17 0.0
18 0.004565069544949
19 0.0
20 -0.037091776453353
21 -0.062445797877903
22 0.17218726145216
23 0.093657921541437
24 -0.011960686576118
25 0.0
26 -0.073641848228551
27 -0.022864155119185
28 0.0
29 -0.12369076322018
30 -0.008915064302827
31 0.0
32 -0.037254335400426
33 -0.003178789029019
34 -0.006500076306451
35 0.009678865335470
36 0.0
37 0.016216865126750
38 0.0
39 0.071770889198640
40 0.096388581677291
41 -0.005931385957709
42 0.019287215581277
43 0.0
44 0.000544329316662
45 0.074872057622500
46 0.10250038988692
47 -0.003352911057204
48 -0.006309407859952
49 -0.015682618007496
50 0.009994884357054
51 0.074872057622500
52 0.10250038988692
53 -0.003352911057204
54 -0.006309407859952
55 0.015682618007496
56 0.009994884357054
57 0.022370069523299
58 0.037644349363155
59 -0.10898221676438
60 -0.094223836848633
61 -0.007338524112678
62 0.0
63 -0.013868797925935
64 -0.012238112676344
65 0.0
66 -0.024821626487550
67 0.000647965517510
68 0.0
69 -0.013463433621953
70 -0.003120506234843
71 0.000126178135662
72 0.002994328099180
73 0.0
74 0.001805919229697
75 0.0
 Sym=      6.1
 Ene=      -0.7469
 Spin= Alpha
 Occup=    2.000000
1 -0.024341765926228
2 -0.040393272470598
3 0.098818565053308
4 0.11973960905914
5 -0.024138117260036
6 0.0
7 -0.082183551459207
8 -0.042060266830006
9 0.0
10 -0.14093815115914
11 0.000279036511551
12 0.0
13 -0.046411758315437
14 0.007820113971637
15 0.010541958839097
16 -0.018362072810734
17 0.0
18 -0.011280293895776
19 0.0
20 0.071925756387898
21 0.12069921117740
22 -0.34865457977295
23 -0.19004516062711
24 0.038223844882482
25 0.0
26 -0.013140110333915
27 0.058664142821081
28 0.0
29 -0.015723311592395
30 0.010662512032932
31 0.0
32 0.059251943189689
33 0.000834865325965
34 0.008733916192344
35 -0.009568781518309
36 0.0
37 0.006711813933887
38 0.0
39 0.044894484497633
40 0.063900784036310
41 0.031442853654201
42 0.006474132365638
43 0.0
44 -0.004174232169348
45 0.048484880939940
46 0.064685810289749
47 0.016939623897061
48 -0.004489627951832
49 -0.006590975085694
50 -0.000246464684789
51 0.048484880939940
52 0.064685810289749
53 0.016939623897061
54 -0.004489627951832
55 0.006590975085694
56 -0.000246464684789
57 -0.051671389708949
58 -0.087584370119294
59 0.26465602414088
60 0.32614985978790
61 -0.083060372807058
62 0.0
63 0.16239883097739
64 -0.12117191857992
65 0.0
66 0.24154893658994
67 -0.095123127268679
68 0.0
69 0.16101787691052
70 0.004862932168132
71 0.008850570731976
72 -0.013713502900107
73 0.0
74 0.013508572056611
75 0.0
 Sym=      7.1
 Ene=      -0.6412
 Spin= Alpha
 Occup=    2.000000
1 -0.009329836886103
2 -0.015377035539851
3 0.035041323635386
4 0.057987181826023
5 -0.002836913605028
6 0.0
7 -0.12326233625301
8 -0.012747501197344
9 0.0
10 -0.20815029745167
11 -0.009297567332739
12 0.0
13 -0.10741801697805
14 0.003575523519134
15 0.017762719520900
16 -0.021338243040034
17 0.0
18 -0.018866122602325
19 0.0
20 0.006022615447369
21 0.010870549377970
22 -0.023381869226809
23 -0.083662472499481
24 0.038531930394127
25 0.0
26 0.15407971444645
27 0.068653244896635
28 0.0
29 0.23505667835336
30 0.056028803168524
31 0.0
32 0.070477711046085
33 -0.022167468884847
34 -0.001245091400066
35 0.023412560284913
36 0.0
37 -0.011130202083706
38 0.0
39 0.013484717255608
40 0.016148355905245
41 -0.006588626699542
42 -0.000308216210170
43 0.0
44 -0.008362840634352
45 0.059792199338629
46 0.090615109251579
47 0.030441250057017
48 -0.002937954829701
49 -0.007656576056209
50 -0.001886491665966
51 0.059792199338629
52 0.090615109251579
53 0.030441250057017
54 -0.002937954829701
55 0.007656576056209
56 -0.001886491665966
57 0.015631920968187
58 0.026507241162995
59 -0.082542339250801
60 -0.13450930727512
61 0.18364116254250
62 0.0
63 -0.049122028995016
64 0.28009360223288
65 0.0
66 -0.064979236045380
67 0.21748997950436
68 0.0
69 -0.042044935646691
70 0.009564074465095
71 -0.006773835447318
72 -0.002790239017778
73 0.0
74 -0.019361619500563
75 0.0
 Sym=      8.1
 Ene=      -0.6293
 Spin= Alpha
 Occup=    2.000000
1 0.004073079977252
2 0.006924842335342
3 -0.016146424763410
4 -0.010708830767916
5 0.16028205865400
6 0.0
7 0.012970134541483
8 0.25605700991848
9 0.0
10 0.022792983462512
11 0.16599083586013
12 0.0
13 0.005599082985584
14 -0.022403646674411
15 0.011893402119925
16 0.010510244554486
17 0.0
18 0.007233107754676
19 0.0
20 -0.021547430727703
21 -0.037248485080119
22 0.10147159940957
23 0.12569836393181
24 0.072260055558039
25 0.0
26 -0.068583223345390
27 0.11484308984136
28 0.0
29 -0.10735597956620
30 0.030346380022479
31 0.0
32 -0.023722066282648
33 -0.025725886051226
34 0.001649872319251
35 0.024076013731975
36 0.0
37 0.012184902317962
38 0.0
39 -0.14278293451934
40 -0.21636495387782
41 -0.072364668656624
42 -0.017137898042441
43 0.0
44 -0.000127867503266
45 0.037132760272686
46 0.056200483027085
47 0.011672002945313
48 0.006499526220977
49 -0.005134872609130
50 0.004777697023246
51 0.037132760272686
52 0.056200483027085
53 0.011672002945313
54 0.006499526220977
55 0.005134872609130
56 0.004777697023246
57 -0.008802716034086
58 -0.014851033331855
59 0.046341432903914
60 0.069768274813911
61 0.047872780851571
62 0.0
63 0.11436883251477
64 0.074598903332311
65 0.0
66 0.17134078973222
67 0.076704976009950
68 0.0
69 0.13930460436577
70 0.007026062672429
71 0.004879613556476
72 -0.011905676228905
73 0.0
74 0.002132503430602
75 0.0
 Sym=      1.2
 Ene=      -0.6215
 Spin= Alpha
 Occup=    2.000000
1 0.0
2 0.0
3 0.0
4 0.0
5 0.0
6 0.15767282218964
7 0.0
8 0.0
9 0.25670707552757
10 0.0
11 0.0
12 0.16290174897007
13 0.0
14 0.0
15 0.0
16 0.0
17 0.021194929330445
18 0.0
19 -0.011760859013308
20 0.0
21 0.0
22 0.0
23 0.0
24 0.0
25 0.090395003914692
26 0.0
27 0.0
28 0.15452622703567
29 0.0
30 0.0
31 0.085556537784248
32 0.0
33 0.0
34 0.0
35 0.0
36 -0.020161412056595
37 0.0
38 0.010150445162293
39 0.0
40 0.0
41 0.0
42 0.0
43 0.008679388776363
44 0.0
45 0.11116424459767
46 0.16784760940669
47 0.051323378651363
48 -0.006518145962875
49 -0.006320110811057
50 0.009198312118615
51 -0.11116424459767
52 -0.16784760940669
53 -0.051323378651363
54 0.006518145962875
55 -0.006320110811057
56 -0.009198312118615
57 0.0
58 0.0
59 0.0
60 0.0
61 0.0
62 0.11632943190175
63 0.0
64 0.0
65 0.18457119227318
66 0.0
67 0.0
68 0.15028256748618
69 0.0
70 0.0
71 0.0
72 0.0
73 0.007916957197191
74 0.0
75 -0.014691934600898
 Sym=      9.1
 Ene=      -0.5430
 Spin= Alpha
 Occup=    2.000000
1 -0.004130490539056
2 -0.006838317427886
3 0.019485054397196
4 0.059913580533459
5 -0.095825803371322
6 0.0
7 0.087648101073553
8 -0.15604060225598
9 0.0
10 0.13927063399835
11 -0.10953937939453
12 0.0
13 0.096461057648606
14 0.020264434104222
15 -0.017003292047752
16 -0.003261142056469
17 0.0
18 0.009184098063401
19 0.0
20 -0.019209276849975
21 -0.033419453771239
22 0.093431497854849
23 0.11229083352283
24 0.084458207031697
25 0.0
26 -0.038583449096919
27 0.12683029062360
28 0.0
29 -0.067536225861617
30 0.082796867278404
31 0.0
32 -0.001427040921422
33 -0.025926102074413
34 0.002046701130184
35 0.023879400944228
36 0.0
37 0.038978424900318
38 0.0
39 0.092295224542377
40 0.14102157018715
41 0.038193710367100
42 0.008124936016140
43 0.0
44 0.002659510554558
45 -0.065890696205444
46 -0.11000626082777
47 -0.046393989366724
48 -0.001567952012184
49 0.010197765849005
50 0.000420344694627
51 -0.065890696205444
52 -0.11000626082777
53 -0.046393989366724
54 -0.001567952012184
55 -0.010197765849005
56 0.000420344694627
57 -0.000376590858374
58 -0.000634102809458
59 0.003983870752006
60 0.028280583517580
61 0.13544394735219
62 0.0
63 0.15405870829267
64 0.21306632195372
65 0.0
66 0.23145157402122
67 0.20062298831716
68 0.0
69 0.20096149646571
70 0.013397040610421
71 0.003447985127097
72 -0.016845025737518
73 0.0
74 -0.003640124478936
75 0.0
 Sym=      2.2
 Ene=      -0.5396
 Spin= Alpha
 Occup=    2.000000
1 0.0
2 0.0
3 0.0
4 0.0
5 0.0
6 -0.10883494912312
7 0.0
8 0.0
9 -0.16862042395140
10 0.0
11 0.0
12 -0.12274374020069
13 0.0
14 0.0
15 0.0
16 0.0
17 -0.009667818425631
18 0.0
19 0.019832806287686
20 0.0
21 0.0
22 0.0
23 0.0
24 0.0
25 0.10115864095169
26 0.0
27 0.0
28 0.16393945795061
29 0.0
30 0.0
31 0.12780927687352
32 0.0
33 0.0
34 0.0
35 0.0
36 -0.025895763556420
37 0.0
38 0.049893968700933
39 0.0
40 0.0
41 0.0
42 0.0
43 -0.005728740708271
44 0.0
45 -0.083788873430151
46 -0.14169536191164
47 -0.058581343852291
48 0.004820863999074
49 0.005945664930410
50 -0.008970543745815
51 0.083788873430151
52 0.14169536191164