
 Working directory              : /tmp/lme/molpro.OssvXq2wxs/
 Global scratch directory       : /tmp/lme/molpro.OssvXq2wxs/
 Wavefunction directory         : /home/lme/wfu/
 Main file repository           : /tmp/lme/molpro.OssvXq2wxs/

 id        : liedlgroup

 Nodes     nprocs
 sv1-c724     1
 GA implementation: MPI file
 GA implementation (serial work in mppx): MPI file

 Using customized tuning parameters: mindgm=1; mindgv=20; mindgc=4; mindgr=1; noblas=0; minvec=7
 default implementation of scratch files=df  


 Variables initialized (1042), CPU time= 0.00 sec
 
            orient,mass
            geometry=initial.xyz
 Including file /home/lme/Theoretische_Chemie/Nomodeco/ase_databank_integration/H3CNH2.molpro/run/H3CNH2_1.molpro/initial.xyz
            mass, iso
            basis=6-311g(d,p)
            {hf
            start, atden}
            optg;
            {frequencies, symm=auto, print=0, analytical}
            put, molden, H3CNH2.molden
 Commands initialized (847), CPU time= 0.01 sec, 718 directives.
 Default parameters read. Elapsed time= 0.06 sec

 Checking input...
 Passed
1


                                         ***  PROGRAM SYSTEM MOLPRO  ***
                                       Copyright, TTI GmbH Stuttgart, 2015
                                    Version 2024.1 linked Wed Jan 31 11:42:09 2024


 **********************************************************************************************************************************
 LABEL *                                                                                                                                                                 
  (6 PROC) 64 bit serial version                                                         DATE: 21-Sep-24          TIME: 23:20:15  
 **********************************************************************************************************************************

 SHA1:             675817fde4514a4a933b69e420913a90cee4ef91
 **********************************************************************************************************************************

 Memory per process:        32 MW
 Total memory per node:     32 MW

 GA preallocation disabled
 GA check disabled

 Variable memory set to 32.0 MW

 ZCENTRE=MASS


 Geometry recognized as XYZ



 Using masses of most abundant isotopes

 **********************************************************************************************************************************
 SETTING BASIS          =    6-311G(D,P)


 Recomputing integrals since basis changed


 Using spherical harmonics

 Library entry C      S 6-311G               selected for orbital group  1
 Library entry C      P 6-311G               selected for orbital group  1
 Library entry C      D 6-311G*              selected for orbital group  1
 Library entry N      S 6-311G               selected for orbital group  2
 Library entry N      P 6-311G               selected for orbital group  2
 Library entry N      D 6-311G*              selected for orbital group  2
 Library entry H      S 6-311G               selected for orbital group  3
 Library entry H      P 6-311G**             selected for orbital group  3


 PROGRAM * SEWARD (Integral evaluation for generally contracted gaussian basis sets)     Author: Roland Lindh, 1990

 Geometry written to block  1 of record 700

 Orientation using atomic masses  
 Molecule type: Asymmetric top
 Symmetry elements: X
 Rotational constants:      22.8073924     21.9393621    102.9216442 GHz

 Point group  Cs  



 ATOMIC COORDINATES

 NR  ATOM    CHARGE       X              Y              Z

   1  C       6.00    0.000000000   -0.025744114    1.398120095
   2  N       7.00    0.000000000    0.138168399   -1.363650892
   3  H       1.00    0.000000000   -1.952653382    2.176841938
   4  H       1.00    1.535156812   -0.785696772   -2.061773829
   5  H       1.00   -1.535156812   -0.785696772   -2.061773829
   6  H       1.00    1.664225106    0.955409021    2.123283528
   7  H       1.00   -1.664225106    0.955409021    2.123283528

 Bond lengths in Bohr (Angstrom)

 1-2  2.766630856  1-3  2.078313507  1-6  2.063533059  1-7  2.063533059  2-4  1.922916776
     ( 1.464038000)     ( 1.099796145)     ( 1.091974669)     ( 1.091974669)     ( 1.017563736)

 2-5  1.922916776
     ( 1.017563736)

 Bond angles

  1-2-4  109.50879564   1-2-5  109.50879564   2-1-3  115.40166059   2-1-6  108.82211815

  2-1-7  108.82211815   3-1-6  108.00872324   3-1-7  108.00872324   4-2-5  105.94527749

  6-1-7  107.50939235

 NUCLEAR CHARGE:                   18
 NUMBER OF PRIMITIVE AOS:         104
 NUMBER OF SYMMETRY AOS:          102
 NUMBER OF CONTRACTIONS:           66   (   43A'  +   23A"  )
 NUMBER OF INNER CORE ORBITALS:     0   (    0A'  +    0A"  )
 NUMBER OF OUTER CORE ORBITALS:     2   (    2A'  +    0A"  )
 NUMBER OF VALENCE ORBITALS:       13   (    9A'  +    4A"  )


 NUCLEAR REPULSION ENERGY   41.97342844

 Eigenvalues of metric

         1 0.554E-02 0.152E-01 0.235E-01 0.336E-01 0.431E-01 0.514E-01 0.720E-01 0.926E-01
         2 0.227E-01 0.323E-01 0.438E-01 0.732E-01 0.889E-01 0.121E+00 0.331E+00 0.356E+00


 Contracted 2-electron integrals neglected if value below      1.0D-11
 AO integral compression algorithm  1   Integral accuracy      1.0D-11

     7.078 MB (compressed) written to integral file ( 57.3%)


 NUMBER OF SORTED TWO-ELECTRON INTEGRALS:    1269445.     BUFFER LENGTH:  32768
 NUMBER OF SEGMENTS:   1  SEGMENT LENGTH:    1269445      RECORD LENGTH: 524288

 Memory used in sort:       1.83 MW

 SORT1 READ     1576324. AND WROTE     1253886. INTEGRALS IN      4 RECORDS. CPU TIME:     0.01 SEC, REAL TIME:     0.03 SEC
 SORT2 READ     1253886. AND WROTE     1269445. INTEGRALS IN     27 RECORDS. CPU TIME:     0.04 SEC, REAL TIME:     0.04 SEC

 FILE SIZES:   FILE 1:    37.3 MBYTE,  FILE 4:    16.8 MBYTE,   TOTAL:     54.1 MBYTE

 OPERATOR DM      FOR CENTER  0  COORDINATES:    0.000000    0.000000    0.000000


 **********************************************************************************************************************************
 DATASETS  * FILE   NREC   LENGTH (MB)   RECORD NAMES
              1      19       34.19       500      610      700      900      950      970     1000      129      960     1100   
                                          VAR    BASINP    GEOM    SYMINP    ZMAT    AOBASIS   BASIS     P2S    ABASIS      S 
                                         1400     1410     1200     1210     1080     1600     1650     1300     1700   
                                           T        V       H0       H01     AOSYM     SMH    MOLCAS    ERIS     OPER   

 PROGRAMS   *        TOTAL       INT
 CPU TIMES  *         0.38      0.28
 REAL TIME  *         0.46 SEC
 DISK USED  *        52.05 MB
 **********************************************************************************************************************************


 Program * Restricted Hartree-Fock

 Orbital guess generated from atomic densities.

 Initial occupancy:   7   2

 NELEC=   18   SYM=1   MS2= 0   THRE=1.0D-08   THRD=1.0D-06   THRG=1.0D-06  HFMA2=F  DIIS_START=2   DIIS_MAX=10   DIIS_INCORE=F

 Level shifts:    0.00 (CLOSED)    0.00 (OPEN)    0.30 (GAP_MIN)

 ITER           ETOT              DE          GRAD        DDIFF     DIIS  NEXP   TIME(IT)  TIME(TOT)  DIAG
   1      -95.21188947     -95.21188947     0.00D+00     0.63D-01     0     0       0.01      0.03    start
   2      -95.23773186      -0.02584238     0.92D-02     0.63D-02     1     0       0.00      0.03    diag
   3      -95.24126364      -0.00353179     0.37D-02     0.22D-02     2     0       0.01      0.04    diag
   4      -95.24173506      -0.00047142     0.11D-02     0.92D-03     3     0       0.00      0.04    diag
   5      -95.24175740      -0.00002234     0.20D-03     0.26D-03     4     0       0.01      0.05    diag
   6      -95.24175862      -0.00000122     0.47D-04     0.65D-04     5     0       0.00      0.05    diag
   7      -95.24175873      -0.00000010     0.14D-04     0.15D-04     6     0       0.01      0.06    diag
   8      -95.24175874      -0.00000001     0.38D-05     0.71D-05     7     0       0.00      0.06    fixocc
   9      -95.24175874      -0.00000000     0.97D-06     0.22D-05     8     0       0.01      0.07    diag
  10      -95.24175874      -0.00000000     0.19D-06     0.49D-06     9     0       0.00      0.07    diag/orth
  11      -95.24175874      -0.00000000     0.40D-07     0.47D-07     0     0       0.01      0.08    diag

 Final occupancy:   7   2

 !RHF STATE 1.1 Energy                -95.241758741122
  RHF One-electron energy            -211.351702214279
  RHF Two-electron energy              74.136515038091
  RHF Kinetic energy                   95.153094202253
  RHF Nuclear energy                   41.973428435066
  RHF Virial quotient                  -1.000931809308

 !RHF STATE 1.1 Dipole moment           0.00000000    -0.56985098     0.13902860
 Dipole moment /Debye                   0.00000000    -1.44841671     0.35337545

 Orbital energies:

           1.1          2.1          3.1          4.1          5.1          6.1          7.1          8.1          9.1
    -15.531294   -11.240406    -1.165046    -0.891840    -0.600188    -0.550883    -0.389218     0.156472     0.192915

           1.2          2.2          3.2          4.2
     -0.656797    -0.513665     0.209730     0.257532


 HOMO      7.1    -0.389218 =     -10.5912eV
 LUMO      8.1     0.156472 =       4.2578eV
 LUMO-HOMO         0.545690 =      14.8490eV

 Orbitals saved in record  2100.2


 **********************************************************************************************************************************
 DATASETS  * FILE   NREC   LENGTH (MB)   RECORD NAMES
              1      19       34.19       500      610      700      900      950      970     1000      129      960     1100   
                                          VAR    BASINP    GEOM    SYMINP    ZMAT    AOBASIS   BASIS     P2S    ABASIS      S 
                                         1400     1410     1200     1210     1080     1600     1650     1300     1700   
                                           T        V       H0       H01     AOSYM     SMH    MOLCAS    ERIS     OPER   

              2       4        0.52       700     1000      520     2100   
                                         GEOM     BASIS   MCVARS     RHF  

 PROGRAMS   *        TOTAL    HF-SCF       INT
 CPU TIMES  *         0.46      0.08      0.28
 REAL TIME  *         0.55 SEC
 DISK USED  *        52.05 MB
 **********************************************************************************************************************************


 PROGRAM * OPT (Geometry optimization)     Authors: F. Eckert and H.-J. Werner


 BFGS update of hessian

 *** Long output written to logfile /home/lme/Theoretische_Chemie/Nomodeco/ase_databank_integration/H3CNH2.molpro/run/H3CNH2_1.molpro/H3CNH2_1.log ***


 Geometry optimization using default procedure for command HF-SCF

 Geometry written to block  1 of record 700

 PQS Optimization using delocalized internal coordinates

 Point group cs. Number of degrees of freedom:    9

 ITER.   ENERGY(OLD)    ENERGY(NEW)      DE          GRADMAX     GRADNORM    GRADRMS     STEPMAX     STEPLEN     STEPRMS   CPU-time
   1   -95.24175874   -95.24248437    -0.00072563  0.01821750  0.02391769  0.00797256  0.04042956  0.06830762  0.02276921      0.68
   2   -95.24248437   -95.24251304    -0.00002867  0.00118231  0.00199960  0.00066653  0.01880710  0.03276124  0.01092041      1.35
   3   -95.24251304   -95.24251432    -0.00000128  0.00051572  0.00070984  0.00023661  0.00394738  0.00595084  0.00198361      2.01
   4   -95.24251432   -95.24251436    -0.00000004  0.00006430  0.00011909  0.00003970  0.00046155  0.00079230  0.00026410      2.67

 END OF GEOMETRY OPTIMIZATION.

 Geometry written to block  1 of record 700

 Recomputing wavefunction for reoriented structure

 Current geometry (xyz format, in Angstrom)

    7
 HF-SCF000/6-311G(D,P)  ENERGY=-95.24251436
 C          0.0000000000       -0.0131511014        0.7356668439
 N          0.0000000000        0.0695179624       -0.7162148142
 H          0.0000000000       -1.0295359396        1.1337140400
 H          0.8035825437       -0.3886108427       -1.0960886296
 H         -0.8035825437       -0.3886108427       -1.0960886296
 H          0.8736744455        0.4987194342        1.1251704140
 H         -0.8736744455        0.4987194342        1.1251704140

 **********************************************************************************************************************************


 **********************************************************************************************************************************
 DATASETS  * FILE   NREC   LENGTH (MB)   RECORD NAMES
              1      19       34.21       500      610      700      900      950      970     1000      129      960     1100   
                                          VAR    BASINP    GEOM    SYMINP    ZMAT    AOBASIS   BASIS     P2S    ABASIS      S 
                                         1400     1410     1200     1210     1080     1600     1650     1300     1700   
                                           T        V       H0       H01     AOSYM     SMH    MOLCAS    ERIS     OPER   

              2       4        0.52       700     1000      520     2100   
                                         GEOM     BASIS   MCVARS     RHF  

 PROGRAMS   *        TOTAL      OPTG    HF-SCF       INT
 CPU TIMES  *         3.40      2.94      0.08      0.28
 REAL TIME  *         3.72 SEC
 DISK USED  *        52.49 MB
 **********************************************************************************************************************************


 PROGRAM * HESSIAN

 PROGRAM * MCKINLEY (Hessian of the energy)     Author: A. Bernhardsson, R. Lindh

 Orbitals from record         2100.2

 Number of closed-shell orbitals:  9 (  7  2 )
 Number of occupied orbitals:      9 (  7  2 )

 Number of electrons= 18     Singlet     Space symmetry=1      Wavefunction type: CLOSED          


 McKinley needed      3.01 seconds of CPU time

 Entering CPHF calculation

 CPHF needed 161 iterations for 21 perturbations.  Total CPU time:    0.93 sec


 HF-SCF hessian saved to record  5300.2

 PROGRAM * FREQUENCIES (Calculation of harmonic vibrational spectra for HF-SCF)


 Permanent Dipole Moment [debye]
     1-   3    0.000000    0.000000    0.000000

 Dipole Moment Norm    0.0000000 [debye]

 Dipole Moment Derivatives [debye/ang]
              1             2             3             4             5             6             7             8
    1    0.00000000    0.00000000    0.00000000    0.00000000    0.00000000    0.00000000    0.00000000    0.00000000
    2    0.00000000    0.00000000    0.00000000    0.00000000    0.00000000    0.00000000    0.00000000    0.00000000
    3    0.00000000    0.00000000    0.00000000    0.00000000    0.00000000    0.00000000    0.00000000    0.00000000
              9            10            11            12            13            14            15            16
    1    0.00000000    0.00000000    0.00000000    0.00000000    0.00000000    0.00000000    0.00000000    0.00000000
    2    0.00000000    0.00000000    0.00000000    0.00000000    0.00000000    0.00000000    0.00000000    0.00000000
    3    0.00000000    0.00000000    0.00000000    0.00000000    0.00000000    0.00000000    0.00000000    0.00000000
             17            18            19            20            21
    1    0.00000000    0.00000000    0.00000000    0.00000000    0.00000000
    2    0.00000000    0.00000000    0.00000000    0.00000000    0.00000000
    3    0.00000000    0.00000000    0.00000000    0.00000000    0.00000000

 Projecting out rotations and translations

 Force Constants (Second Derivatives of the Energy) in [a.u.]
                             CX1         CY1         CZ1         NX2         NY2     
           CX1           0.6648684
           CY1           0.0000000   0.6163332
           CZ1           0.0000000   0.0155213   0.5589596
           NX2          -0.1207899  -0.0000000  -0.0000000   0.7785467
           NY2           0.0000000  -0.0763219  -0.0158070  -0.0000000   0.3088929
           NZ2           0.0000000   0.0384011  -0.2688463  -0.0000000   0.1641182
           HX3          -0.0646799  -0.0000000   0.0000000   0.0045778   0.0000000
           HY3          -0.0000000  -0.2901697   0.0746076  -0.0000000   0.0081626
           HZ3           0.0000000   0.0734351  -0.0850733   0.0000000   0.0383716
           HX4           0.0039963   0.0004915  -0.0024418  -0.3350001   0.1448215
           HY4          -0.0034758  -0.0012578   0.0081403   0.1918500  -0.1245518
           HZ4           0.0393917  -0.0226730  -0.0159170   0.1052254  -0.0762513
           HX5           0.0039963  -0.0004915   0.0024418  -0.3350001  -0.1448215
           HY5           0.0034758  -0.0012578   0.0081403  -0.1918500  -0.1245518
           HZ5          -0.0393917  -0.0226730  -0.0159170  -0.1052254  -0.0762513
           HX6          -0.2436956  -0.1078118  -0.0774335   0.0038328   0.0020912
           HY6          -0.1093896  -0.1236630  -0.0453012   0.0039238   0.0041850
           HZ6          -0.0676241  -0.0410057  -0.0866030  -0.0385657  -0.0170900
           HX7          -0.2436956   0.1078118   0.0774335   0.0038328  -0.0020912
           HY7           0.1093896  -0.1236630  -0.0453012  -0.0039238   0.0041850
           HZ7           0.0676241  -0.0410057  -0.0866030   0.0385657  -0.0170900
                             NZ2         HX3         HY3         HZ3         HX4     
           NZ2           0.5751705
           HX3          -0.0000000   0.0559635
           HY3           0.0055203  -0.0000000   0.3128416
           HZ3          -0.0294494  -0.0000000  -0.0902231   0.1001546
           HX4           0.1177373  -0.0000632  -0.0005384  -0.0006850   0.3578407
           HY4          -0.1041096  -0.0014486   0.0010985  -0.0000294  -0.1650670
           HZ4          -0.1181279   0.0003474   0.0008683   0.0017045  -0.1283455
           HX5          -0.1177373  -0.0000632   0.0005384   0.0006850  -0.0295741
           HY5          -0.1041096   0.0014486   0.0010985  -0.0000294   0.0213280
           HZ5          -0.1181279  -0.0003474   0.0008683   0.0017045   0.0149156
           HX6          -0.0003517   0.0021325   0.0000947   0.0014947   0.0005538
           HY6           0.0000898  -0.0297269  -0.0165158  -0.0107624  -0.0003253
           HZ6          -0.0203095   0.0097085   0.0041793   0.0054796   0.0001331
           HX7           0.0003517   0.0021325  -0.0000947  -0.0014947   0.0022466
           HY7           0.0000898   0.0297269  -0.0165158  -0.0107624  -0.0007103
           HZ7          -0.0203095  -0.0097085   0.0041793   0.0054796  -0.0013137
                             HY4         HZ4         HX5         HY5         HZ5     
           HY4           0.1169714
           HZ4           0.0877470   0.1321633
           HX5          -0.0213280  -0.0149156   0.3578407
           HY5           0.0072847   0.0099844   0.1650670   0.1169714
           HZ5           0.0099844   0.0076756   0.1283455   0.0877470   0.1321633
           HX6          -0.0000699  -0.0007235   0.0022466   0.0004607   0.0009798
           HY6          -0.0004008  -0.0005392   0.0007103   0.0008557   0.0008639
           HZ6          -0.0010869   0.0014490   0.0013137  -0.0006458  -0.0089475
           HX7          -0.0004607  -0.0009798   0.0005538   0.0000699   0.0007235
           HY7           0.0008557   0.0008639   0.0003253  -0.0004008  -0.0005392
           HZ7          -0.0006458  -0.0089475  -0.0001331  -0.0010869   0.0014490
                             HX6         HY6         HZ6         HX7         HY7     
           HX6           0.2579875
           HY6           0.1200215   0.1252323
           HZ6           0.0855343   0.0480844   0.1036080
           HX7          -0.0230576   0.0147863   0.0095001   0.2579875
           HY7          -0.0147863   0.0103066   0.0075648  -0.1200215   0.1252323
           HZ7          -0.0095001   0.0075648   0.0053233  -0.0855343   0.0480844
                             HZ7     
           HZ7           0.1036080


 Atomic Masses
     1-   7   12.000000   14.003070    1.007825    1.007825    1.007825    1.007825    1.007825

 Mass weighted Second Derivative Matrix
                             CX1         CY1         CZ1         NX2         NY2     
           CX1           0.0554057
           CY1           0.0000000   0.0513611
           CZ1           0.0000000   0.0012934   0.0465800
           NX2          -0.0093181  -0.0000000  -0.0000000   0.0555983
           NY2           0.0000000  -0.0058877  -0.0012194  -0.0000000   0.0220589
           NZ2           0.0000000   0.0029624  -0.0207397  -0.0000000   0.0117202
           HX3          -0.0185988  -0.0000000   0.0000000   0.0012186   0.0000000
           HY3          -0.0000000  -0.0834390   0.0214536  -0.0000000   0.0021728
           HZ3           0.0000000   0.0211164  -0.0244630   0.0000000   0.0102142
           HX4           0.0011491   0.0001413  -0.0007021  -0.0891745   0.0385504
           HY4          -0.0009995  -0.0003617   0.0023408   0.0510690  -0.0331547
           HZ4           0.0113272  -0.0065197  -0.0045770   0.0280102  -0.0202975
           HX5           0.0011491  -0.0001413   0.0007021  -0.0891745  -0.0385504
           HY5           0.0009995  -0.0003617   0.0023408  -0.0510690  -0.0331547
           HZ5          -0.0113272  -0.0065197  -0.0045770  -0.0280102  -0.0202975
           HX6          -0.0700752  -0.0310015  -0.0222662   0.0010203   0.0005567
           HY6          -0.0314552  -0.0355596  -0.0130265   0.0010445   0.0011140
           HZ6          -0.0194454  -0.0117913  -0.0249029  -0.0102659  -0.0045492
           HX7          -0.0700752   0.0310015   0.0222662   0.0010203  -0.0005567
           HY7           0.0314552  -0.0355596  -0.0130265  -0.0010445   0.0011140
           HZ7           0.0194454  -0.0117913  -0.0249029   0.0102659  -0.0045492
                             NZ2         HX3         HY3         HZ3         HX4     
           NZ2           0.0410746
           HX3          -0.0000000   0.0555290
           HY3           0.0014695  -0.0000000   0.3104127
           HZ3          -0.0078392  -0.0000000  -0.0895226   0.0993769
           HX4           0.0313408  -0.0000627  -0.0005342  -0.0006797   0.3550624
           HY4          -0.0277132  -0.0014374   0.0010900  -0.0000292  -0.1637854
           HZ4          -0.0314448   0.0003447   0.0008615   0.0016912  -0.1273490
           HX5          -0.0313408  -0.0000627   0.0005342   0.0006797  -0.0293444
           HY5          -0.0277132   0.0014374   0.0010900  -0.0000292   0.0211624
           HZ5          -0.0314448  -0.0003447   0.0008615   0.0016912   0.0147998
           HX6          -0.0000936   0.0021159   0.0000940   0.0014831   0.0005495
           HY6           0.0000239  -0.0294961  -0.0163875  -0.0106788  -0.0003228
           HZ6          -0.0054062   0.0096331   0.0041469   0.0054371   0.0001321
           HX7           0.0000936   0.0021159  -0.0000940  -0.0014831   0.0022291
           HY7           0.0000239   0.0294961  -0.0163875  -0.0106788  -0.0007047
           HZ7          -0.0054062  -0.0096331   0.0041469   0.0054371  -0.0013035
                             HY4         HZ4         HX5         HY5         HZ5     
           HY4           0.1160632
           HZ4           0.0870657   0.1311371
           HX5          -0.0211624  -0.0147998   0.3550624
           HY5           0.0072281   0.0099069   0.1637854   0.1160632
           HZ5           0.0099069   0.0076160   0.1273490   0.0870657   0.1311371
           HX6          -0.0000694  -0.0007179   0.0022291   0.0004572   0.0009722
           HY6          -0.0003976  -0.0005350   0.0007047   0.0008490   0.0008572
           HZ6          -0.0010785   0.0014378   0.0013035  -0.0006408  -0.0088780
           HX7          -0.0004572  -0.0009722   0.0005495   0.0000694   0.0007179
           HY7           0.0008490   0.0008572   0.0003228  -0.0003976  -0.0005350
           HZ7          -0.0006408  -0.0088780  -0.0001321  -0.0010785   0.0014378
                             HX6         HY6         HZ6         HX7         HY7     
           HX6           0.2559844
           HY6           0.1190896   0.1242600
           HZ6           0.0848702   0.0477110   0.1028036
           HX7          -0.0228786   0.0146715   0.0094263   0.2559844
           HY7          -0.0146715   0.0102266   0.0075061  -0.1190896   0.1242600
           HZ7          -0.0094263   0.0075061   0.0052820  -0.0848702   0.0477110
                             HZ7     
           HZ7           0.1028036


 Mass Weighted 2nd Derivative Matrix Eigenvalues
     1-  10    0.000000    0.000000    0.000000    0.000000    0.000000    0.000000    0.004220    0.032475    0.041336    0.049071
    11-  20    0.061129    0.080856    0.094813    0.098967    0.101273    0.122855    0.367219    0.387104    0.395127    0.525116
    21-  21    0.546456

 Mass Weighted 2nd Derivative Matrix Eigenvectors
              1             2             3             4             5             6             7             8
    1   -0.00247302    0.03039568    0.01511244   -0.00885650   -0.00095442    0.81901188   -0.00996215    0.00000000
    2    0.12098191    0.54665402    0.56143873   -0.02454457    0.23033930   -0.03027914    0.00000000   -0.05774414
    3    0.01945049   -0.32108085    0.43682354    0.12801592   -0.27562024    0.00497773    0.00000000   -0.05133533
    4    0.84556113   -0.01475586   -0.13022826    0.15266004   -0.05595736    0.14795364   -0.15044056    0.00000000
    5   -0.08899957   -0.03276401    0.06797639    0.72142554    0.49508120    0.00807109    0.00000000   -0.28764174
    6    0.00850228   -0.38233423    0.44121253    0.18087529   -0.28371472    0.00769913    0.00000000    0.23204343
    7   -0.19178110    0.24759745   -0.05462107    0.19136397   -0.29428845    0.29718692   -0.30592157    0.00000000
    8    0.05121905    0.20426424    0.20231407   -0.06212424    0.04864046   -0.01177434    0.00000000    0.08992514
    9    0.04689562    0.02400579    0.22772815   -0.10336772   -0.12612416   -0.00621612    0.00000000    0.26855592
   10    0.22425878    0.10629584   -0.07891293    0.15173043   -0.16276387   -0.00929829    0.25208883    0.09609587
   11   -0.14335265    0.13772911   -0.07599118    0.41251319   -0.09091909    0.00959273    0.49617653    0.48043029
   12    0.14090236   -0.04604146    0.13897889    0.01877682   -0.11883937   -0.11052646    0.02145137   -0.34336402
   13    0.22425878    0.10629584   -0.07891293    0.15173043   -0.16276387   -0.00929829    0.25208883   -0.09609587
   14    0.06475888   -0.24280786    0.03686508    0.07956744    0.39112630    0.00046269   -0.49617653    0.48043029
   15   -0.09914617   -0.05357606    0.18892655   -0.04835722   -0.07508067    0.10775324   -0.02145137   -0.34336402
   16    0.00738852   -0.11421560    0.05242856   -0.12487769    0.16385652    0.28734479    0.19844430   -0.01803987
   17   -0.06225972    0.41014479    0.14011391    0.12004986   -0.21301650   -0.00674676   -0.29702405    0.11032793
   18    0.11535138   -0.14790559    0.04850653    0.14433604   -0.08037142   -0.11335988   -0.06353484   -0.13481676
   19    0.00738852   -0.11421560    0.05242856   -0.12487769    0.16385652    0.28734479    0.19844430    0.01803987
   20    0.16400419   -0.00358424    0.26281396   -0.24193683    0.31107494   -0.01667316    0.29702405    0.11032793
   21   -0.14563522   -0.15609739    0.10281084    0.07134629   -0.03279590    0.12395911    0.06353484   -0.13481676
              9            10            11            12            13            14            15            16
    1    0.20061390    0.00000000    0.00000000    0.41030667    0.00000000    0.00000000   -0.15446749    0.00000000
    2    0.00000000   -0.07217878   -0.41410399    0.00000000   -0.06746042   -0.17839703    0.00000000   -0.06790975
    3    0.00000000    0.63961159   -0.08351821    0.00000000   -0.38772479    0.12851969    0.00000000    0.03619986
    4    0.02963764    0.00000000    0.00000000   -0.32528677    0.00000000    0.00000000   -0.07292692    0.00000000
    5    0.00000000    0.03988425    0.32344556    0.00000000   -0.00617107   -0.04531444    0.00000000   -0.08510126
    6    0.00000000   -0.63093966    0.04948011    0.00000000   -0.03051879    0.00606428    0.00000000   -0.26359167
    7   -0.25378760    0.00000000    0.00000000   -0.24814317    0.00000000    0.00000000    0.68368174    0.00000000
    8    0.00000000    0.02383033    0.10134246    0.00000000    0.15262939   -0.21049995    0.00000000   -0.01824802
    9    0.00000000    0.27699018    0.54488402    0.00000000    0.36721700   -0.48006785    0.00000000    0.02755186
   10   -0.12631987   -0.00543694   -0.07481085    0.08842681    0.02346937    0.00022254    0.00689236    0.39556295
   11    0.12912548    0.00562981   -0.15856444   -0.07312200    0.00700437    0.00497449   -0.01106775    0.27030915
   12   -0.43592230   -0.19275621    0.10922323    0.45705582    0.03901582   -0.01687020    0.07280571    0.47405259
   13   -0.12631987    0.00543694    0.07481085    0.08842681   -0.02346937   -0.00022254    0.00689236   -0.39556295
   14   -0.12912548    0.00562981   -0.15856444    0.07312200    0.00700437    0.00497449    0.01106775    0.27030915
   15    0.43592230   -0.19275621    0.10922323   -0.45705582    0.03901582   -0.01687020   -0.07280571    0.47405259
   16   -0.14814558   -0.00616548   -0.06349358   -0.06600774   -0.29271369   -0.30649565    0.05368963    0.01315471
   17    0.00157157    0.03265154    0.21952885    0.07755448    0.04457269    0.49252137   -0.37186610    0.01458847
   18    0.45013979    0.12664812   -0.32978900    0.31574212    0.50320214    0.02386501    0.32413380   -0.05901407
   19   -0.14814558    0.00616548    0.06349358   -0.06600774    0.29271369    0.30649565    0.05368963   -0.01315471
   20   -0.00157157    0.03265154    0.21952885   -0.07755448    0.04457269    0.49252137    0.37186610    0.01458847
   21   -0.45013979    0.12664812   -0.32978900   -0.31574212    0.50320214    0.02386501   -0.32413380   -0.05901407
             17            18            19            20            21
    1    0.00000000    0.00000000   -0.30882259    0.00000000   -0.00731111
    2   -0.18825730   -0.24532603    0.00000000    0.01018665    0.00000000
    3    0.12368845   -0.10551244    0.00000000   -0.00557098    0.00000000
    4    0.00000000    0.00000000    0.00887404    0.00000000   -0.29121011
    5    0.00080207    0.00414867    0.00000000    0.14987441    0.00000000
    6    0.00501985    0.00315004    0.00000000    0.14473912    0.00000000
    7    0.00000000    0.00000000   -0.01984963    0.00000000    0.00045418
    8    0.87303834    0.24333502    0.00000000   -0.00928783    0.00000000
    9   -0.31350044   -0.09291959    0.00000000   -0.00001437    0.00000000
   10    0.00717780    0.00741974   -0.01271527    0.57272321    0.54318258
   11    0.00133423   -0.00597021    0.00845446   -0.28819184   -0.30911945
   12    0.00200594   -0.00367557    0.00092962   -0.25893441   -0.25835897
   13   -0.00717780   -0.00741974   -0.01271527   -0.57272321    0.54318258
   14    0.00133423   -0.00597021   -0.00845446   -0.28819184    0.30911945
   15    0.00200594   -0.00367557   -0.00092962   -0.25893441    0.25835897
   16   -0.16301628    0.53775900    0.53891688   -0.00722061    0.01194890
   17   -0.11454537    0.29983494    0.32654107   -0.00406875    0.00626903
   18   -0.06801287    0.22630652    0.23405861   -0.00120513    0.00615856
   19    0.16301628   -0.53775900    0.53891688    0.00722061    0.01194890
   20   -0.11454537    0.29983494   -0.32654107   -0.00406875   -0.00626903
   21   -0.06801287    0.22630652   -0.23405861   -0.00120513   -0.00615856

   Low Vibration      Wavenumber
        Nr             [1/cm] 
        1                0.00
        2                0.00
        3                0.00
        4                0.00
        5                0.00
        6                0.00

     Vibration        Wavenumber
        Nr             [1/cm] 
        1              333.92
        2              926.36
        3             1045.13
        4             1138.72
        5             1270.95
        6             1461.71
        7             1582.85
        8             1617.15
        9             1635.88
       10             1801.77
       11             3115.06
       12             3198.29
       13             3231.27
       14             3725.05
       15             3799.98

 FREQUENCIES * CALCULATION OF NORMAL MODES FOR HF-SCF


 Atomic Coordinates

  Nr  Atom  Charge       X              Y              Z

   1   C     6.00    0.000000000   -0.024851980    1.390208854
   2   N     7.00    0.000000000    0.131369910   -1.353449845
   3   H     1.00    0.000000000   -1.945540961    2.142409039
   4   H     1.00    1.518550926   -0.734368062   -2.071307318
   5   H     1.00   -1.518550926   -0.734368062   -2.071307318
   6   H     1.00    1.651005424    0.942443144    2.126263926
   7   H     1.00   -1.651005424    0.942443144    2.126263926

 Gradient norm at reference geometry: 0.17184D-03

 Normal Modes

                              1 A``       2 A`        3 A``       4 A`        5 A` 
 Wavenumbers [cm-1]          333.92      926.36     1045.13     1138.72     1270.95
 Intensities [km/mol]          0.00        0.00        0.00        0.00        0.00
 Intensities [relative]        0.00        0.00        0.00        0.00        0.00
           CX1             -0.00288     0.00000     0.05791    -0.00000     0.00000
           CY1              0.00000    -0.01667     0.00000    -0.02084    -0.11954
           CZ1              0.00000    -0.01482     0.00000     0.18464    -0.02411
           NX2             -0.04020     0.00000     0.00792    -0.00000    -0.00000
           NY2             -0.00000    -0.07687     0.00000     0.01066     0.08643
           NZ2             -0.00000     0.06201    -0.00000    -0.16861     0.01322
           HX3             -0.30473     0.00000    -0.25280     0.00000    -0.00000
           HY3              0.00000     0.08958    -0.00000     0.02374     0.10095
           HZ3              0.00000     0.26751    -0.00000     0.27591     0.54276
           HX4              0.25111     0.09572    -0.12583    -0.00542    -0.07452
           HY4              0.49425     0.47856     0.12862     0.00561    -0.15795
           HZ4              0.02137    -0.34203    -0.43423    -0.19201     0.10880
           HX5              0.25111    -0.09572    -0.12583     0.00542     0.07452
           HY5             -0.49425     0.47856    -0.12862     0.00561    -0.15795
           HZ5             -0.02137    -0.34203     0.43423    -0.19201     0.10880
           HX6              0.19767    -0.01797    -0.14757    -0.00614    -0.06325
           HY6             -0.29587     0.10990     0.00157     0.03252     0.21867
           HZ6             -0.06329    -0.13429     0.44839     0.12616    -0.32851
           HX7              0.19767     0.01797    -0.14757     0.00614     0.06325
           HY7              0.29587     0.10990    -0.00157     0.03252     0.21867
           HZ7              0.06329    -0.13429    -0.44839     0.12616    -0.32851

                              6 A``       7 A`        8 A`        9 A``      10 A` 
 Wavenumbers [cm-1]         1461.71     1582.85     1617.15     1635.88     1801.77
 Intensities [km/mol]          0.00        0.00        0.00        0.00        0.00
 Intensities [relative]        0.00        0.00        0.00        0.00        0.00
           CX1              0.11845     0.00000    -0.00000    -0.04459    -0.00000
           CY1              0.00000    -0.01947    -0.05150     0.00000    -0.01960
           CZ1              0.00000    -0.11193     0.03710    -0.00000     0.01045
           NX2             -0.08693     0.00000    -0.00000    -0.01949    -0.00000
           NY2             -0.00000    -0.00165    -0.01211     0.00000    -0.02274
           NZ2              0.00000    -0.00816     0.00162     0.00000    -0.07044
           HX3             -0.24718    -0.00000     0.00000     0.68102    -0.00000
           HY3             -0.00000     0.15204    -0.20968     0.00000    -0.01818
           HZ3             -0.00000     0.36579    -0.47820     0.00000     0.02744
           HX4              0.08808     0.02338     0.00022     0.00687     0.39402
           HY4             -0.07284     0.00698     0.00496    -0.01102     0.26926
           HZ4              0.45528     0.03886    -0.01680     0.07252     0.47221
           HX5              0.08808    -0.02338    -0.00022     0.00687    -0.39402
           HY5              0.07284     0.00698     0.00496     0.01102     0.26926
           HZ5             -0.45528     0.03886    -0.01680    -0.07252     0.47221
           HX6             -0.06575    -0.29158    -0.30530     0.05348     0.01310
           HY6              0.07725     0.04440     0.49061    -0.37042     0.01453
           HZ6              0.31451     0.50124     0.02377     0.32287    -0.05878
           HX7             -0.06575     0.29158     0.30530     0.05348    -0.01310
           HY7             -0.07725     0.04440     0.49061     0.37042     0.01453
           HZ7             -0.31451     0.50124     0.02377    -0.32287    -0.05878

                             11 A`       12 A`       13 A``      14 A`       15 A``
 Wavenumbers [cm-1]         3115.06     3198.29     3231.27     3725.05     3799.98
 Intensities [km/mol]          0.00        0.00        0.00        0.00        0.00
 Intensities [relative]        0.00        0.00        0.00        0.00        0.00
           CX1             -0.00000    -0.00000    -0.08915    -0.00000    -0.00211
           CY1             -0.05435    -0.07082     0.00000     0.00294     0.00000
           CZ1              0.03571    -0.03046     0.00000    -0.00161     0.00000
           NX2             -0.00000    -0.00000     0.00237     0.00000    -0.07782
           NY2              0.00021     0.00111    -0.00000     0.04005     0.00000
           NZ2              0.00134     0.00084    -0.00000     0.03868     0.00000
           HX3             -0.00000     0.00000    -0.01977     0.00000     0.00045
           HY3              0.86964     0.24239    -0.00000    -0.00925    -0.00000
           HZ3             -0.31228    -0.09256     0.00000    -0.00001    -0.00000
           HX4              0.00715     0.00739    -0.01267     0.57050     0.54107
           HY4              0.00133    -0.00595     0.00842    -0.28707    -0.30792
           HZ4              0.00200    -0.00366     0.00093    -0.25793    -0.25735
           HX5             -0.00715    -0.00739    -0.01267    -0.57050     0.54107
           HY5              0.00133    -0.00595    -0.00842    -0.28707     0.30792
           HZ5              0.00200    -0.00366    -0.00093    -0.25793     0.25735
           HX6             -0.16238     0.53567     0.53682    -0.00719     0.01190
           HY6             -0.11410     0.29867     0.32527    -0.00405     0.00624
           HZ6             -0.06775     0.22543     0.23315    -0.00120     0.00613
           HX7              0.16238    -0.53567     0.53682     0.00719     0.01190
           HY7             -0.11410     0.29867    -0.32527    -0.00405    -0.00624
           HZ7             -0.06775     0.22543    -0.23315    -0.00120    -0.00613


 Normal Modes of low/zero frequencies

                                  1           2           3           4           5
 Wavenumbers [cm-1]            0.00        0.00        0.00        0.00        0.00
 Intensities [km/mol]          0.00        0.00        0.00        0.00        0.00
 Intensities [relative]        0.00        0.00        0.00        0.00        0.00
           CX1             -0.00071     0.00877     0.00436    -0.00256    -0.00028
           CY1              0.03492     0.15781     0.16207    -0.00709     0.06649
           CZ1              0.00561    -0.09269     0.12610     0.03696    -0.07956
           NX2              0.22596    -0.00394    -0.03480     0.04080    -0.01495
           NY2             -0.02378    -0.00876     0.01817     0.19279     0.13230
           NZ2              0.00227    -0.10217     0.11791     0.04834    -0.07582
           HX3             -0.19104     0.24663    -0.05441     0.19062    -0.29314
           HY3              0.05102     0.20347     0.20153    -0.06188     0.04845
           HZ3              0.04671     0.02391     0.22684    -0.10297    -0.12563
           HX4              0.22339     0.10588    -0.07861     0.15114    -0.16213
           HY4             -0.14280     0.13719    -0.07570     0.41091    -0.09057
           HZ4              0.14035    -0.04586     0.13844     0.01870    -0.11838
           HX5              0.22339     0.10588    -0.07861     0.15114    -0.16213
           HY5              0.06451    -0.24186     0.03672     0.07926     0.38960
           HZ5             -0.09876    -0.05337     0.18819    -0.04817    -0.07479
           HX6              0.00736    -0.11377     0.05222    -0.12439     0.16322
           HY6             -0.06202     0.40855     0.13957     0.11958    -0.21219
           HZ6              0.11490    -0.14733     0.04832     0.14377    -0.08006
           HX7              0.00736    -0.11377     0.05222    -0.12439     0.16322
           HY7              0.16337    -0.00357     0.26179    -0.24100     0.30986
           HZ7             -0.14507    -0.15549     0.10241     0.07107    -0.03267

                                  6
 Wavenumbers [cm-1]            0.00
 Intensities [km/mol]          0.00
 Intensities [relative]        0.00
           CX1              0.23643
           CY1             -0.00874
           CZ1              0.00144
           NX2              0.03954
           NY2              0.00216
           NZ2              0.00206
           HX3              0.29603
           HY3             -0.01173
           HZ3             -0.00619
           HX4             -0.00926
           HY4              0.00956
           HZ4             -0.11010
           HX5             -0.00926
           HY5              0.00046
           HZ5              0.10733
           HX6              0.28623
           HY6             -0.00672
           HZ6             -0.11292
           HX7              0.28623
           HY7             -0.01661
           HZ7              0.12348


 Frequencies dumped to record   5400.2
 Frequency information read from record  5400.2

 Zero point energy:  0.06808098 [H]    14942.05 [1/CM]      178.75 [KJ/MOL]


 **********************************************************************************************************************************
 DATASETS  * FILE   NREC   LENGTH (MB)   RECORD NAMES
              1      19       34.21       500      610      700      900      950      970     1000      129      960     1100   
                                          VAR    BASINP    GEOM    SYMINP    ZMAT    AOBASIS   BASIS     P2S    ABASIS      S 
                                         1400     1410     1200     1210     1080     1600     1650     1300     1700   
                                           T        V       H0       H01     AOSYM     SMH    MOLCAS    ERIS     OPER   

              2       7        0.56       700     1000      520     2100     5300     5450     5400   
                                         GEOM     BASIS   MCVARS     RHF     HESS     NMOD     FREQ   

              4       5        0.68      4100     4000     4200     4300     4400   

 PROGRAMS   *        TOTAL      FREQ      OPTG    HF-SCF       INT
 CPU TIMES  *         7.35      3.95      2.94      0.08      0.28
 REAL TIME  *         7.80 SEC
 DISK USED  *        52.49 MB
 **********************************************************************************************************************************

 Dump information in style MOLDEN to h3cnh2.molden                                                                   

 Molecular orbitals read from record     2100.2  Type=RHF/CANONICAL  
 Occupation numbers read from record     2100.2  Type=RHF/RHF  
 Orbital energies read from record       2100.2  Type=RHF/CANONICAL  
 Redundancy group numbers read from rec  2100.2  Type=RHF/RHF  

 DUMP ORBITAL  1.1 AS ORBITAL    1  occ=    2.0000  eig=  -15.5249  GROUP=   2
 DUMP ORBITAL  2.1 AS ORBITAL    2  occ=    2.0000  eig=  -11.2366  GROUP=   2
 DUMP ORBITAL  3.1 AS ORBITAL    3  occ=    2.0000  eig=   -1.1703  GROUP=   2
 DUMP ORBITAL  4.1 AS ORBITAL    4  occ=    2.0000  eig=   -0.8959  GROUP=   2
 DUMP ORBITAL  1.2 AS ORBITAL    5  occ=    2.0000  eig=   -0.6638  GROUP=   2
 DUMP ORBITAL  5.1 AS ORBITAL    6  occ=    2.0000  eig=   -0.6020  GROUP=   2
 DUMP ORBITAL  6.1 AS ORBITAL    7  occ=    2.0000  eig=   -0.5569  GROUP=   2
 DUMP ORBITAL  2.2 AS ORBITAL    8  occ=    2.0000  eig=   -0.5164  GROUP=   2
 DUMP ORBITAL  7.1 AS ORBITAL    9  occ=    2.0000  eig=   -0.3854  GROUP=   2

 Total charge:      18.000000
 Frequency information read from record  5400.2

 **********************************************************************************************************************************

 HF/6-311G(D,P)//HF/6-311G(D,P) energy=    -95.242514363760

    OPTG(HF-SCF)          HF-SCF
    -95.24251436    -95.24175874
 **********************************************************************************************************************************
 Molpro calculation terminated
