[Molden Format]
[Molpro variables]
_NUMVAR=  1059.000000000000    
_AVOGAD= 0.6022140760000000E+24
_BOLTZ= 0.1380649000000000E-22
_CLIGHTSI=  299792458.0000000    
_JOULE= 0.4359744722207100E-17
_JPCAL=  4.184000000000000    
_PLANCK= 0.6626070150000000E-33
_BOHR= 0.5291772109030000E-10
_ECHARG= 0.1602176634000000E-18
_ENULL= 0.8854187812800001E-11
_MU= 0.1660539066600000E-26
_EMASS= 0.9109383701500001E-30
_AMU2AU=  1822.888486217313    
_CLIGHT=  29979245800.00000    
_EV= 0.3674932217565494E-01
_KJOULE= 0.3808798847133432E-03
_KJOULE/MOL= 0.3808798847133432E-03
_CM= 0.4556335252912009E-05
_CM-1= 0.4556335252912009E-05
_DEB2SI= 0.3335640951981520E-29
_KCAL= 0.1593601437640628E-02
_KCAL/MOL= 0.1593601437640628E-02
_KELVIN= 0.3166811563455608E-05
_HERTZ= 0.1519829846057038E-15
_HZ= 0.1519829846057038E-15
_TOA= 0.5291772109030000    
_TOANG= 0.5291772109030000    
_TORAD= 0.1745329251994330E-01
_TOCM=  219474.6313631965    
_TODEBYE=  2.541746473194078    
_TOE= 0.4803204712570263E-09
_TOEV=  27.21138624598803    
_TOHERTZ=  6579683920501656.    
_TOHZ=  6579683920501656.    
_TOK=  315775.0248040668    
_TOKCAL=  627.5094740630558    
_TOKELVIN=  315775.0248040668    
_TOKJ=  2625.499639479825    
_TOKJOULE=  2625.499639479825    
_TOKG= 0.1660539066600000E-26
_ANG=  1.889726124625770    
_ANGSTROM=  1.889726124625770    
_RPAREF=  0.000000000000000    
_RPADISS=  0.000000000000000    
_IGNORE_UNDEF=  2.000000000000000    
_STRICTCHECK=  0.000000000000000    
!SEWARD=  0.000000000000000    
!MULTI=  0.000000000000000    
!DFMULTI=  0.000000000000000    
!NUMHESS=  0.000000000000000    
_SEW_ONEEL=  0.000000000000000    
_CPPDONE=FALSE
_DKROLL_DONE=  0.000000000000000    
_FNUC_DONE=  0.000000000000000    
_FOCKDONE=TRUE
_GRADONE=FALSE
_HESSDONE=TRUE
_INTDONE=TRUE
_SCFDONE=TRUE
_MODUL_BLOCK=FALSE
_MODUL_SLATER=TRUE
_MODUL_MRCC=FALSE
_MODUL_NBO6=FALSE
_MODUL_NECI=FALSE
_MODUL_AIMS=TRUE
_MODUL_HDF5=FALSE
_MODUL_GECCO=FALSE
_ISWINDOWS=FALSE
_MRCC_EXEC=
_FITC_AO_SAVED=FALSE
_FITC_MO_SAVED=FALSE
_LSTYP=SEWARD
_INTYP=INTS
_GEOMTYP=ZMAT
_GRADTYP=ALASKA
_DIRECT=FALSE
_DKHO= -1.000000000000000    
_FNUC=  0.000000000000000    
_SYNCM=  0.000000000000000    
_BASIS=6-311G(D,P)
_ZCENTRE=MASS
_ZORIENT=  1.000000000000000    
_NELEC=  22.00000000000000    
!SPIN=  0.000000000000000    
_OPTCONV= 0.1505049032261238E-07
_QSDSTEP=  0.000000000000000    
_QSDIRC=  0.000000000000000    
_PROGRAM=FREQ
_CPUSTEP=  1.240000000000000    
_SYSSTEP= 0.8000000000000002E-01
_WALLSTEP=  1.320000000000000    
!DFSCF=  0.000000000000000    
!SCSGRD=  0.000000000000000    
_NCEN=  3.000000000000000    
_CPUTOT=  3.010000000000000    
_DFTEXFAC=  1.000000000000000    
_DMX=  0.000000000000000    
_DMY=  0.000000000000000    
_DMZ=  0.000000000000000    
_DMX_SCF=  0.000000000000000    
_DMY_SCF=  0.000000000000000    
_DMZ_SCF=  0.000000000000000    
_FREQUENCIES= 0.2898609131114313E-04
_HOMO=  1.700000000000000    
_EHOMO=-0.5422656662510089    
_LUMO=  2.200000000000000    
_ELUMO= 0.2306173124843805    
_ENERGY= -187.6875903666368    
_ENERGY_METHOD=HF
_ENERGY_BASIS=6-311G(D,P)
_GEOMETRY_METHOD=HF
_GEOMETRY_BASIS=6-311G(D,P)
_ENUC=  59.66557727076466    
_GRADENERG= -187.6875903666177    
_GRADEXFAC=  9999.000000000000    
_GRADMETHOD=  1.000000000000000    
_NMRMETHOD=  0.000000000000000    
_NMRMAGNET=  0.000000000000000    
_VIRIAL=-0.9154502576439006E-07
!GRID_FREEZE= -1.000000000000000    
!NEESE_INDEX=  0.000000000000000    
_ITERATIONS=  2.000000000000000    
_LASTNELEC=  22.00000000000000    
_LASTSPIN=  0.000000000000000    
_LASTSYM=  1.000000000000000    
_MPP_PROG=  0.000000000000000    
_MSNSTATES=  0.000000000000000    
_RS2PHASE=  0.000000000000000    
_NPROC_MPP=  1.000000000000000    
_NPROC_SMP=  6.000000000000000    
_NUMSTEP=  0.000000000000000    
_OPTCONVMX= 0.1505049032261238E-07
_OPTCONVRMS= 0.1505049032261238E-07
_OPTGRAD= 0.4267255349077459E-07
_OPTGRADMX= 0.4267255349077459E-07
_OPTGRADRMS= 0.4267255349077459E-07
_OPTSTEP=  5.000000000000000    
_ORBITAL=  2100.200000000000    
_PI=  3.141592653589793    
_SEIG_MIN= 0.7752787568418749E-02
_SEWPROP=TRUE
_STATUS=  1.000000000000000    
_SYSTOT= 0.3800000000000000    
_VERSION=  2024001.000000000    
_WALLTOT=  3.390000000000000    
_ZPE= 0.1286877180617430E-01
_DATE=24-Apr-24
_LASTORB=0
_OUTPUT=/home/lme/Bachelor_Thesis_Lukas_Meinschad/CO2/co2.out
_PGROUP=D2h
_TIME=09:32:43
_LIBMOL=/usr/local/molpro/molpro_2024.1.0_sockets/lib/
_VIGRDC=  0.000000000000000    
!VIBCNT=  0.000000000000000    
!SURFREC=  0.000000000000000    
!XSURFREC=  0.000000000000000    
!XPOLYREC=  0.000000000000000    
!ROTREC=  0.000000000000000    
!POLYREC=  0.000000000000000    
!DIPREC=  0.000000000000000    
!DIP4DREC=  0.000000000000000    
!DIPROT=  0.000000000000000    
!DIP4DROT=  0.000000000000000    
!PTREC=  0.000000000000000    
!PT4DREC=  0.000000000000000    
!VSCFREC=  0.000000000000000    
!VCIREC=  0.000000000000000    
!PVCIREC=  0.000000000000000    
!VMP2REC=  0.000000000000000    
!VMCSCFREC=  0.000000000000000    
!VMRCIREC=  0.000000000000000    
!VIBSTATEREC=  0.000000000000000    
!VIBSTATECNT=  0.000000000000000    
!VIBINFO=  0.000000000000000    
!GAREC=  0.000000000000000    
!SCFORB=  21002.00000000000    
!DEFCORE=  2.000000000000000    
!SCORE=  0.000000000000000    
!NEWMOL=  0.000000000000000    
!NEWSYM=  0.000000000000000    
_SLFILES=slscratch
_NGSSTO=  9.000000000000000    
_SIN=SIN
_COS=COS
_TAN=TAN
_ACOS=ACOS
_ASIN=ASIN
_ATAN=ATAN
_COSH=COSH
_SINH=SINH
_TANH=TANH
_ABS=ABS
_MOD=MOD
_ERF=ERF
_REFC=REFC
_ERFC=ERFC
_HYPOT=HYPOT
_J0=J0
_J1=J1
_JN=JN
_GAMMA=GAMMA
_LGAMMA=LGAMMA
_Y0=Y0
_Y1=Y1
_YN=YN
_EXP=EXP
_LOG=LOG
_LOG10=LOG10
_SQRT=SQRT
_INT=INT
_NINT=NINT
_MAX=MAX
_MIN=MIN
_COSMO=  0.000000000000000    
_COSMOIT=  0.000000000000000    
_COSMOES=  0.000000000000000    
_COSMOEDS=  0.000000000000000    
_COSMOEC=  0.000000000000000    
_COSMOEDCORR=  0.000000000000000    
_FEPSI=  1.000000000000000    
_SL_IsMM=  0.000000000000000    
_SL_NSYM=  8.000000000000000    
_SL_System_BitSw=  0.000000000000000    
_SL_Unique_atoms=  0.000000000000000    
_SL_GRAD=  0.000000000000000    
_SL_MAXUPD_Hess=  5.000000000000000    
_SL_N_PRINT_COD=  5.000000000000000    
_SL_PRINT_CODES=  0.000000000000000    
_SL_BasType=  0.000000000000000    
_SL_Energy_Pred=  0.000000000000000    
_SL_New_Coords=  0.000000000000000    
_SL_Total_Nuclea=  0.000000000000000    
_SL_Highest_Mltp=  0.000000000000000    
_SL_Ref_Geom=  0.000000000000000    
_SL_Symmetry_ope=  1.000000000000000    
_SL_agrad=  0.000000000000000    
_SL_GrdMax=  0.000000000000000    
_SL_GrdNorm=  0.000000000000000    
_SL_GrdRMS=  0.000000000000000    
_SL_Hss_Q=  0.000000000000000    
_SL_Hss_X=  0.000000000000000    
_SL_BMxOld=  0.000000000000000    
_SL_KtB=  0.000000000000000    
_SL_TROld=  0.000000000000000    
_SL_No_of_Intern=  0.000000000000000    
_SL_Hess=  0.000000000000000    
_SL_K=  0.000000000000000    
!LATTICE= -1.000000000000000    
!NEWLATTICE=  0.000000000000000    
!LATGRAD_VAR=FALSE
!SEW_LATTICE=  1.000000000000000    
!AIC_ONEEL=  0.000000000000000    
!LOCAL=  0.000000000000000    
!SAVEDOM= -1.000000000000000    
!RESTDOM= -1.000000000000000    
!SAVEDOM_HF= -1.000000000000000    
!RESTDOM_HF= -1.000000000000000    
!HESSREC=  5300.200000000000    
!FREQREC=  5400.200000000000    
!NMODREC=  5450.200000000000    
!GTASKS=  0.000000000000000    
!HTASKS=  0.000000000000000    
!SAVEDOM_EOM= -1.000000000000000    
!RESTDOM_EOM= -1.000000000000000    
!GRADSTATE= -1.000000000000000    
!DEBUG=  0.000000000000000    
!CFIT_CPHF=  0.000000000000000    
!RDOMAUX_CPHF=  0.000000000000000    
!THRAO_CPHF= 0.1000000000000000E-11
!THRMO_CPHF= 0.1000000000000000E-11
!THROV_CPHF= 0.1000000000000000E-13
!THRSW_CPHF= 0.1000000000000000E-11
!THRPROD_CPHF= 0.1000000000000000E-11
!THRAOPR_CPHF= 0.1000000000000000E-11
!CFIT_SCFGRD=  0.000000000000000    
!RDOMAUX_SCFGRD=  0.000000000000000    
!THRAO_SCFGRD= 0.1000000000000000E-11
!THRMO_SCFGRD= 0.1000000000000000E-11
!THROV_SCFGRD= 0.1000000000000000E-13
!THRSW_SCFGRD= 0.1000000000000000E-11
!THRPROD_SCFGRD= 0.1000000000000000E-11
!THRAOPR_SCFGRD= 0.1000000000000000E-11
!LOCFIT_SCF=  0.000000000000000    
!LOCFIT_MP2=  0.000000000000000    
_RIDOM=  0.000000000000000    
!CC2_METHOD=  0.000000000000000    
_BASIS2006=FALSE
_SVDDEL= -1.000000000000000    
_SVDDELA= -1.000000000000000    
_SVDDELP= -1.000000000000000    
_SVDDELF= -1.000000000000000    
_SVDDELS= -1.000000000000000    
_SVDDEL_ABS= -1.000000000000000    
_SVDDELA_ABS= -1.000000000000000    
_SVDDELP_ABS= -1.000000000000000    
_SVDDELF_ABS= -1.000000000000000    
_SVDDELS_ABS= -1.000000000000000    
_MAXBASIS=  0.000000000000000    
!OPT_CONICAL=  0.000000000000000    
!CLEARSP_JGRID=  0.000000000000000    
_GRDHYBR=  0.000000000000000    
_STATEGRAD=  1.000000000000000    
_4EXT_NDISKS=  1.000000000000000    
!EMBEDFLAG=  1.000000000000000    
!EMBED=FALSE
!EMBED_F12=FALSE
!EMBEDNUC=  0.000000000000000    
_EMBEDENERGY=  0.000000000000000    
!EMBED_DFC=FALSE
!NUM_VOIDS=  0.000000000000000    
_IBODY=  0.000000000000000    
_EMBE_CORR=  0.000000000000000    
!EMBED_PROJ=FALSE
!EMB_PROJ_ZMU=  1000000.000000000    
!CORRECTION_HF=  0.000000000000000    
!EMBED_AORB=  0.000000000000000    
!EMBED_NACORR=  0.000000000000000    
!EMBED_MP2=FALSE
!EMBED_TRUNC_PERTURBATION=FALSE
!EMBED_FROZEN=  0.000000000000000    
!EMBED_ACTIVE=  0.000000000000000    
_CHANGE_BASIS=FALSE
_RESTORE_BASIS=FALSE
_FIX_EMBED_GUESS=FALSE
_EMBED_SCF=FALSE
_NEOBAS=FALSE
_NEOOVE=FALSE
_PRINEO=FALSE
_HUZINAGA_T=FALSE
_HUZINAGA_F=FALSE
_HUZINAGA=FALSE
_HUZINAGA_CORRECT=FALSE
!FASTLATGRAD=  1.000000000000000    
!FASTVLAMBDA= -1.000000000000000    
!IFORCE= -1.000000000000000    
!USESYM= -1.000000000000000    
_SINDEX=  0.000000000000000    
_AVDOM_OSV=  0.000000000000000    
_AVDOM_PNO=  0.000000000000000    
_AVDOM_PNOCC=  0.000000000000000    
_AVDOM_TNO=  0.000000000000000    
_AVDOM_TNOIT=  0.000000000000000    
_AVDOM_PAO=  0.000000000000000    
_AVDOM_LMO=  0.000000000000000    
_CC2OSV_FLAG=  0.000000000000000    
_EOMCCSD_CONV=FALSE
_TMADC2_FLAG=FALSE
_PROPADC2_FLAG=FALSE
_LEN_VirQ=  0.000000000000000    
_GRDCC2LR_FLAG=FALSE
_GRDADC2_FLAG=FALSE
_RO_VGLOBAL=  0.000000000000000    
_OPT=FALSE
_FREQ=FALSE
_HESS=FALSE
_CMRCC_callName=EMPTY
_CMRCC_callCount=  0.000000000000000    
_GECCO_CIROOT=  1.000000000000000    
_SYM_CATION=  7.000000000000000    
_MON_A=FALSE
_MON_B=FALSE
_MAXGEOM=  100.0000000000000    
!MAXGEOM=  100.0000000000000    
_NCORE=  0.000000000000000    
_NLARGECORE=  0.000000000000000    
RCO=  1.135238877991600    
GX1= -0.000000000000000    
GY1= 0.9552709927191683E-16
GZ1= -2.145290565431574    
GX2= -0.000000000000000    
GY2= 0.9552709927191683E-16
GZ2=  0.000000000000000    
GX3= -0.000000000000000    
GY3=-0.1671952231477625E-15
GZ3=  2.145290565431574    
O1X1=  0.000000000000000    
O1Y1=  0.000000000000000    
O1Z1= -2.145290565431574    
CX2=  0.000000000000000    
CY2=  0.000000000000000    
CZ2=  0.000000000000000    
O2X3=  0.000000000000000    
O2Y3=  0.000000000000000    
O2Z3=  2.145290565431574    
[Atoms] Angs
O     1    8         0.0000000000        0.0000000000       -1.1352388780
C     2    6         0.0000000000        0.0000000000        0.0000000000
O     3    8         0.0000000000        0.0000000000        1.1352388780
[GTO]
   1 0
 s    6  1.00
  0.8588500000D+04  0.1895150083D-02
  0.1297230000D+04  0.1438590063D-01
  0.2992960000D+03  0.7073200310D-01
  0.8737710000D+02  0.2400010105D+00
  0.2567890000D+02  0.5947970261D+00
  0.3740040000D+01  0.2808020123D+00
 s    3  1.00
  0.4211750000D+02  0.1138890124D+00
  0.9628370000D+01  0.9208111006D+00
  0.2853320000D+01 -0.3274470358D-02
 s    1  1.00
  0.9056610000D+00  0.1000000000D+01
 s    1  1.00
  0.2556110000D+00  0.1000000000D+01
 p    3  1.00
  0.4211750000D+02  0.3651139738D-01
  0.9628370000D+01  0.2371529830D+00
  0.2853320000D+01  0.8197019412D+00
 p    1  1.00
  0.9056610000D+00  0.1000000000D+01
 p    1  1.00
  0.2556110000D+00  0.1000000000D+01
 d    1  1.00
  0.1292000000D+01  0.1000000000D+01
  
   3 0
 s    6  1.00
  0.8588500000D+04  0.1895150083D-02
  0.1297230000D+04  0.1438590063D-01
  0.2992960000D+03  0.7073200310D-01
  0.8737710000D+02  0.2400010105D+00
  0.2567890000D+02  0.5947970261D+00
  0.3740040000D+01  0.2808020123D+00
 s    3  1.00
  0.4211750000D+02  0.1138890124D+00
  0.9628370000D+01  0.9208111006D+00
  0.2853320000D+01 -0.3274470358D-02
 s    1  1.00
  0.9056610000D+00  0.1000000000D+01
 s    1  1.00
  0.2556110000D+00  0.1000000000D+01
 p    3  1.00
  0.4211750000D+02  0.3651139738D-01
  0.9628370000D+01  0.2371529830D+00
  0.2853320000D+01  0.8197019412D+00
 p    1  1.00
  0.9056610000D+00  0.1000000000D+01
 p    1  1.00
  0.2556110000D+00  0.1000000000D+01
 d    1  1.00
  0.1292000000D+01  0.1000000000D+01
  
   2 0
 s    6  1.00
  0.4563240000D+04  0.1966650249D-02
  0.6820240000D+03  0.1523060193D-01
  0.1549730000D+03  0.7612690966D-01
  0.4445530000D+02  0.2608010331D+00
  0.1302900000D+02  0.6164620782D+00
  0.1827730000D+01  0.2210060280D+00
 s    3  1.00
  0.2096420000D+02  0.1146600807D+00
  0.4803310000D+01  0.9199996477D+00
  0.1459330000D+01 -0.3030682134D-02
 s    1  1.00
  0.4834560000D+00  0.1000000000D+01
 s    1  1.00
  0.1455850000D+00  0.1000000000D+01
 p    3  1.00
  0.2096420000D+02  0.4024869267D-01
  0.4803310000D+01  0.2375939567D+00
  0.1459330000D+01  0.8158538515D+00
 p    1  1.00
  0.4834560000D+00  0.1000000000D+01
 p    1  1.00
  0.1455850000D+00  0.1000000000D+01
 d    1  1.00
  0.6260000000D+00  0.1000000000D+01


[MO]
 Sym=      1.5
 Ene=     -20.6401
 Spin= Alpha
 Occup=    2.000000
1 0.38993245833270
2 0.33351956514572
3 0.004008329930926
4 -0.001345819077805
5 0.0
6 0.0
7 0.001473721234770
8 0.0
9 0.0
10 -0.000521041490917
11 0.0
12 0.0
13 -0.000140069761662
14 -0.000018548712108
15 -0.000018548712108
16 0.000037097424216
17 0.0
18 0.0
19 0.0
20 -0.38993245833270
21 -0.33351956514572
22 -0.004008329930926
23 0.001345819077805
24 0.0
25 0.0
26 0.001473721234770
27 0.0
28 0.0
29 -0.000521041490917
30 0.0
31 0.0
32 -0.000140069761662
33 0.000018548712108
34 0.000018548712108
35 -0.000037097424216
36 0.0
37 0.0
38 0.0
39 0.0
40 0.0
41 0.0
42 0.0
43 0.0
44 0.0
45 -0.000155789814973
46 0.0
47 0.0
48 -0.000708399842720
49 0.0
50 0.0
51 -0.001085725713352
52 0.0
53 0.0
54 0.0
55 0.0
56 0.0
57 0.0
 Sym=      1.1
 Ene=     -20.6401
 Spin= Alpha
 Occup=    2.000000
1 0.38993444748209
2 0.33353887096620
3 0.003846738271473
4 -0.000549347634078
5 0.0
6 0.0
7 0.001445681357394
8 0.0
9 0.0
10 -0.000481849026018
11 0.0
12 0.0
13 -0.000030487845729
14 -0.000023448229667
15 -0.000023448229667
16 0.000046896459334
17 0.0
18 0.0
19 0.0
20 0.38993444748209
21 0.33353887096620
22 0.003846738271473
23 -0.000549347634078
24 0.0
25 0.0
26 -0.001445681357394
27 0.0
28 0.0
29 0.000481849026018
30 0.0
31 0.0
32 0.000030487845729
33 -0.000023448229667
34 -0.000023448229667
35 0.000046896459334
36 0.0
37 0.0
38 0.0
39 0.000010399375075
40 -0.000132953448463
41 0.000571064650368
42 0.000569171131229
43 0.0
44 0.0
45 0.0
46 0.0
47 0.0
48 0.0
49 0.0
50 0.0
51 0.0
52 -0.000112470442138
53 -0.000112470442138
54 0.000224940884277
55 0.0
56 0.0
57 0.0
 Sym=      2.1
 Ene=     -11.4466
 Spin= Alpha
 Occup=    2.000000
1 -0.000291493589191
2 -0.000349789579593
3 0.000182097685507
4 -0.000997189949146
5 0.0
6 0.0
7 0.000450543824199
8 0.0
9 0.0
10 -0.000014584990044
11 0.0
12 0.0
13 -0.000358520471018
14 -0.000064976276850
15 -0.000064976276850
16 0.000129952553699
17 0.0
18 0.0
19 0.0
20 -0.000291493589191
21 -0.000349789579593
22 0.000182097685507
23 -0.000997189949146
24 0.0
25 0.0
26 -0.000450543824199
27 0.0
28 0.0
29 0.000014584990044
30 0.0
31 0.0
32 0.000358520471018
33 -0.000064976276850
34 -0.000064976276850
35 0.000129952553699
36 0.0
37 0.0
38 0.0
39 0.56321907293342
40 0.46648630537785
41 0.004792409811915
42 0.001286690461593
43 0.0
44 0.0
45 0.0
46 0.0
47 0.0
48 0.0
49 0.0
50 0.0
51 0.0
52 -0.001055013862475
53 -0.001055013862475
54 0.002110027724949
55 0.0
56 0.0
57 0.0
 Sym=      3.1
 Ene=      -1.5448
 Spin= Alpha
 Occup=    2.000000
1 -0.072188505405367
2 -0.11974392792794
3 0.32760528467938
4 0.21690680636103
5 0.0
6 0.0
7 0.051593385433551
8 0.0
9 0.0
10 0.067542042414294
11 0.0
12 0.0
13 0.033472546320444
14 -0.006098985272140
15 -0.006098985272140
16 0.012197970544280
17 0.0
18 0.0
19 0.0
20 -0.072188505405367
21 -0.11974392792794
22 0.32760528467938
23 0.21690680636103
24 0.0
25 0.0
26 -0.051593385433551
27 0.0
28 0.0
29 -0.067542042414294
30 0.0
31 0.0
32 -0.033472546320444
33 -0.006098985272140
34 -0.006098985272140
35 0.012197970544280
36 0.0
37 0.0
38 0.0
39 -0.084395099648793
40 -0.13592329292236
41 0.35014635582031
42 0.034687139584645
43 0.0
44 0.0
45 0.0
46 0.0
47 0.0
48 0.0
49 0.0
50 0.0
51 0.0
52 -0.030922060421269
53 -0.030922060421269
54 0.061844120842539
55 0.0
56 0.0
57 0.0
 Sym=      2.5
 Ene=      -1.4920
 Spin= Alpha
 Occup=    2.000000
1 -0.078511573390457
2 -0.13125841889879
3 0.36831918766644
4 0.27579027442001
5 0.0
6 0.0
7 0.051610601622035
8 0.0
9 0.0
10 0.085043730772714
11 0.0
12 0.0
13 0.030647513538443
14 -0.009091713319132
15 -0.009091713319132
16 0.018183426638264
17 0.0
18 0.0
19 0.0
20 0.078511573390457
21 0.13125841889879
22 -0.36831918766644
23 -0.27579027442001
24 0.0
25 0.0
26 0.051610601622035
27 0.0
28 0.0
29 0.085043730772714
30 0.0
31 0.0
32 0.030647513538443
33 0.009091713319132
34 0.009091713319132
35 -0.018183426638264
36 0.0
37 0.0
38 0.0
39 0.0
40 0.0
41 0.0
42 0.0
43 0.0
44 0.0
45 -0.16252375856994
46 0.0
47 0.0
48 -0.18197813306489
49 0.0
50 0.0
51 0.038989118603830
52 0.0
53 0.0
54 0.0
55 0.0
56 0.0
57 0.0
 Sym=      4.1
 Ene=      -0.7939
 Spin= Alpha
 Occup=    2.000000
1 0.046558130013003
2 0.079103853081988
3 -0.24196732973185
4 -0.30219710529547
5 0.0
6 0.0
7 0.15631816282778
8 0.0
9 0.0
10 0.22794358987268
11 0.0
12 0.0
13 0.15607042165428
14 -0.008423533040833
15 -0.008423533040833
16 0.016847066081666
17 0.0
18 0.0
19 0.0
20 0.046558130013003
21 0.079103853081988
22 -0.24196732973185
23 -0.30219710529547
24 0.0
25 0.0
26 -0.15631816282778
27 0.0
28 0.0
29 -0.22794358987268
30 0.0
31 0.0
32 -0.15607042165428
33 -0.008423533040833
34 -0.008423533040833
35 0.016847066081666
36 0.0
37 0.0
38 0.0
39 -0.073212499492076
40 -0.12348092632441
41 0.37985828348504
42 0.11652792646685
43 0.0
44 0.0
45 0.0
46 0.0
47 0.0
48 0.0
49 0.0
50 0.0
51 0.0
52 -0.010770935427664
53 -0.010770935427664
54 0.021541870855327
55 0.0
56 0.0
57 0.0
 Sym=      3.5
 Ene=      -0.7446
 Spin= Alpha
 Occup=    2.000000
1 0.035495857189117
2 0.060169915144552
3 -0.18697895969036
4 -0.23416641787052
5 0.0
6 0.0
7 0.18008051797862
8 0.0
9 0.0
10 0.26864571698512
11 0.0
12 0.0
13 0.17754186150545
14 -0.011713182631563
15 -0.011713182631563
16 0.023426365263125
17 0.0
18 0.0
19 0.0
20 -0.035495857189117
21 -0.060169915144552
22 0.18697895969036
23 0.23416641787052
24 0.0
25 0.0
26 0.18008051797862
27 0.0
28 0.0
29 0.26864571698512
30 0.0
31 0.0
32 0.17754186150545
33 0.011713182631563
34 0.011713182631563
35 -0.023426365263125
36 0.0
37 0.0
38 0.0
39 0.0
40 0.0
41 0.0
42 0.0
43 0.0
44 0.0
45 -0.17155031020149
46 0.0
47 0.0
48 -0.22892690869320
49 0.0
50 0.0
51 0.024761205148480
52 0.0
53 0.0
54 0.0
55 0.0
56 0.0
57 0.0
 Sym=      1.2
 Ene=      -0.7238
 Spin= Alpha
 Occup=    2.000000
1 0.0
2 0.0
3 0.0
4 0.0
5 0.16030803175886
6 0.0
7 0.0
8 0.25876971163431
9 0.0
10 0.0
11 0.18856672816606
12 0.0
13 0.0
14 0.0
15 0.0
16 0.0
17 0.0
18 0.027129246426722
19 0.0
20 0.0
21 0.0
22 0.0
23 0.0
24 0.16030803175886
25 0.0
26 0.0
27 0.25876971163431
28 0.0
29 0.0
30 0.18856672816606
31 0.0
32 0.0
33 0.0
34 0.0
35 0.0
36 0.0
37 -0.027129246426722
38 0.0
39 0.0
40 0.0
41 0.0
42 0.0
43 0.16114185738057
44 0.0
45 0.0
46 0.26530036063358
47 0.0
48 0.0
49 0.11981067310042
50 0.0
51 0.0
52 0.0
53 0.0
54 0.0
55 0.0
56 0.0
57 0.0
 Sym=      1.3
 Ene=      -0.7238
 Spin= Alpha
 Occup=    2.000000
1 0.0
2 0.0
3 0.0
4 0.0
5 0.0
6 0.16030803175886
7 0.0
8 0.0
9 0.25876971163431
10 0.0
11 0.0
12 0.18856672816606
13 0.0
14 0.0
15 0.0
16 0.0
17 0.0
18 0.0
19 0.027129246426722
20 0.0
21 0.0
22 0.0
23 0.0
24 0.0
25 0.16030803175886
26 0.0
27 0.0
28 0.25876971163431
29 0.0
30 0.0
31 0.18856672816606
32 0.0
33 0.0
34 0.0
35 0.0
36 0.0
37 0.0
38 -0.027129246426722
39 0.0
40 0.0
41 0.0
42 0.0
43 0.0
44 0.16114185738057
45 0.0
46 0.0
47 0.26530036063359
48 0.0
49 0.0
50 0.11981067310042
51 0.0
52 0.0
53 0.0
54 0.0
55 0.0
56 0.0
57 0.0
 Sym=      1.6
 Ene=      -0.5423
 Spin= Alpha
 Occup=    2.000000
1 0.0
2 0.0
3 0.0
4 0.0
5 0.20704184990456
6 0.0
7 0.0
8 0.31106573148301
9 0.0
10 0.0
11 0.30958107985499
12 0.0
13 0.0
14 0.0
15 0.0
16 0.0
17 0.0
18 0.014827295973019
19 0.0
20 0.0
21 0.0
22 0.0
23 0.0
24 -0.20704184990456
25 0.0
26 0.0
27 -0.31106573148301
28 0.0
29 0.0
30 -0.30958107985499
31 0.0
32 0.0
33 0.0
34 0.0
35 0.0
36 0.0
37 0.014827295973019
38 0.0
39 0.0
40 0.0
41 0.0
42 0.0
43 0.0
44 0.0
45 0.0
46 0.0
47 0.0
48 0.0
49 0.0
50 0.0
51 0.0
52 0.0
53 0.0
54 0.0
55 0.0
56 -0.098364991908861
57 0.0
 Sym=      1.7
 Ene=      -0.5423
 Spin= Alpha
 Occup=    2.000000
1 0.0
2 0.0
3 0.0
4 0.0
5 0.0
6 0.20704184990456
7 0.0
8 0.0
9 0.31106573148301
10 0.0
11 0.0
12 0.30958107985499
13 0.0
14 0.0
15 0.0
16 0.0
17 0.0
18 0.0
19 0.014827295973019
20 0.0
21 0.0
22 0.0
23 0.0
24 0.0
25 -0.20704184990456
26 0.0
27 0.0
28 -0.31106573148301
29 0.0
30 0.0
31 -0.30958107985499
32 0.0
33 0.0
34 0.0
35 0.0
36 0.0
37 0.0
38 0.014827295973019
39 0.0
40 0.0
41 0.0
42 0.0
43 0.0
44 0.0
45 0.0
46 0.0
47 0.0
48 0.0
49 0.0
50 0.0
51 0.0
52 0.0
53 0.0
54 0.0
55 0.0
56 0.0
57 -0.098364991908860
 Sym=      2.2
 Ene=       0.2306
 Spin= Alpha
 Occup=    0.000000
1 0.0
2 0.0
3 0.0
4 0.0
5 -0.15644139632843
6 0.0
7 0.0
8 -0.21906531299142
9 0.0
10 0.0
11 -0.50407396298718
12 0.0
13 0.0
14 0.0
15 0.0
16 0.0
17 0.0
18 0.014313591286198
19 0.0
20 0.0
21 0.0
22 0.0
23 0.0
24 -0.15644139632843
25 0.0
26 0.0
27 -0.21906531299142
28 0.0
29 0.0
30 -0.50407396298718
31 0.0
32 0.0
33 0.0
34 0.0
35 0.0
36 0.0
37 -0.014313591286198
38 0.0
39 0.0
40 0.0
41 0.0
42 0.0
43 0.21315497382267
44 0.0
45 0.0
46 0.37557089322527
47 0.0
48 0.0
49 0.87832120548217
50 0.0
51 0.0
52 0.0
53 0.0
54 0.0
55 0.0
56 0.0
57 0.0
 Sym=      2.3
 Ene=       0.2306
 Spin= Alpha
 Occup=    0.000000
1 0.0
2 0.0
3 0.0
4 0.0
5 0.0
6 -0.15644139632843
7 0.0
8 0.0
9 -0.21906531299142
10 0.0
11 0.0
12 -0.50407396298717
13 0.0
14 0.0
15 0.0
16 0.0
17 0.0
18 0.0
19 0.014313591286198
20 0.0
21 0.0
22 0.0
23 0.0
24 0.0
25 -0.15644139632843
26 0.0
27 0.0
28 -0.21906531299142
29 0.0
30 0.0
31 -0.50407396298717
32 0.0
33 0.0
34 0.0
35 0.0
36 0.0
37 0.0
38 -0.014313591286198
39 0.0
40 0.0
41 0.0
42 0.0
43 0.0
44 0.21315497382267
45 0.0
46 0.0
47 0.37557089322528
48 0.0
49 0.0
50 0.87832120548216
51 0.0
52 0.0
53 0.0
54 0.0
55 0.0
56 0.0
57 0.0
 Sym=      5.1
 Ene=       0.2325
 Spin= Alpha
 Occup=    0.000000
1 0.035728884727587
2 0.061094628613998
3 -0.15628419784500
4 -1.04278278419185
5 0.0
6 0.0
7 -0.082876316012869
8 0.0
9 0.0
10 -0.13857218685548
11 0.0
12 0.0
13 -0.52801229271569
14 0.013863113267464
15 0.013863113267464
16 -0.027726226534929
17 0.0
18 0.0
19 0.0
20 0.035728884727587
21 0.061094628613998
22 -0.15628419784500
23 -1.04278278419185
24 0.0
25 0.0
26 0.082876316012869
27 0.0
28 0.0
29 0.13857218685548
30 0.0
31 0.0
32 0.52801229271569
33 0.013863113267464
34 0.013863113267464
35 -0.027726226534929
36 0.0
37 0.0
38 0.0
39 -0.013801414062942
40 -0.026227579860398
41 -0.057951997712986
42 2.55092457510499
43 0.0
44 0.0
45 0.0
46 0.0
47 0.0
48 0.0
49 0.0
50 0.0
51 0.0
52 -0.002700373079877
53 -0.002700373079877
54 0.005400746159755
55 0.0
56 0.0
57 0.0
 Sym=      4.5
 Ene=       0.4385
 Spin= Alpha
 Occup=    0.000000
1 -0.030611303146017
2 -0.048167208853670
3 0.015394934936350
4 2.60340286532349
5 0.0
6 0.0
7 -0.035714408551615
8 0.0
9 0.0
10 -0.050446439014652
11 0.0
12 0.0
13 0.62037053342532
14 -0.015877921903628
15 -0.015877921903628
16 0.031755843807256
17 0.0
18 0.0
19 0.0
20 0.030611303146017
21 0.048167208853670
22 -0.015394934936350
23 -2.60340286532349
24 0.0
25 0.0
26 -0.035714408551615
27 0.0
28 0.0
29 -0.050446439014652
30 0.0
31 0.0
32 0.62037053342532
33 0.015877921903628
34 0.015877921903628
35 -0.031755843807256
36 0.0
37 0.0
38 0.0
39 0.0
40 0.0
41 0.0
42 0.0
43 0.0
44 0.0
45 -0.025964342998420
46 0.0
47 0.0
48 0.29434942278829
49 0.0
50 0.0
51 3.53710337054854
52 0.0
53 0.0
54 0.0
55 0.0
56 0.0
57 0.0
 Sym=      3.3
 Ene=       0.5120
 Spin= Alpha
 Occup=    0.000000
1 0.0
2 0.0
3 0.0
4 0.0
5 0.0
6 -0.007449553496355
7 0.0
8 0.0
9 -0.020450022245359
10 0.0
11 0.0
12 -0.084347737110461
13 0.0
14 0.0
15 0.0
16 0.0
17 0.0
18 0.0
19 -0.022606273320453
20 0.0
21 0.0
22 0.0
23 0.0
24 0.0
25 -0.007449553496355
26 0.0
27 0.0
28 -0.020450022245359
29 0.0
30 0.0
31 -0.084347737110461
32 0.0
33 0.0
34 0.0
35 0.0
36 0.0
37 0.0
38 0.022606273320453
39 0.0
40 0.0
41 0.0
42 0.0
43 0.0
44 -0.20874363396496
45 0.0
46 0.0
47 -0.88793579101960
48 0.0
49 0.0
50 1.27900596710167
51 0.0
52 0.0
53 0.0
54 0.0
55 0.0
56 0.0
57 0.0
 Sym=      3.2
 Ene=       0.5120
 Spin= Alpha
 Occup=    0.000000
1 0.0
2 0.0
3 0.0
4 0.0
5 -0.007449553496355
6 0.0
7 0.0
8 -0.020450022245366
9 0.0
10 0.0
11 -0.084347737110444
12 0.0
13 0.0
14 0.0
15 0.0
16 0.0
17 0.0
18 -0.022606273320454
19 0.0
20 0.0
21 0.0
22 0.0
23 0.0
24 -0.007449553496355
25 0.0
26 0.0
27 -0.020450022245366
28 0.0
29 0.0
30 -0.084347737110444
31 0.0
32 0.0
33 0.0
34 0.0
35 0.0
36 0.0
37 0.022606273320454
38 0.0
39 0.0
40 0.0
41 0.0
42 0.0
43 -0.20874363396496
44 0.0
45 0.0
46 -0.88793579101960
47 0.0
48 0.0
49 1.27900596710165
50 0.0
51 0.0
52 0.0
53 0.0
54 0.0
55 0.0
56 0.0
57 0.0
 Sym=      6.1
 Ene=       0.7549
 Spin= Alpha
 Occup=    0.000000
1 0.026075572465070
2 0.044228406154029
3 -0.16136952695840
4 0.59595478787589
5 0.0
6 0.0
7 -0.15910378411036
8 0.0
9 0.0
10 -0.11803783577455
11 0.0
12 0.0
13 -0.010687492333111
14 -0.041126263334073
15 -0.041126263334073
16 0.082252526668147
17 0.0
18 0.0
19 0.0
20 0.026075572465070
21 0.044228406154029
22 -0.16136952695840
23 0.59595478787589
24 0.0
25 0.0
26 0.15910378411036
27 0.0
28 0.0
29 0.11803783577455
30 0.0
31 0.0
32 0.010687492333111
33 -0.041126263334073
34 -0.041126263334073
35 0.082252526668147
36 0.0
37 0.0
38 0.0
39 -0.12209284249726
40 -0.23601483623835
41 1.42860345255365
42 -1.63424379716571
43 0.0
44 0.0
45 0.0
46 0.0
47 0.0
48 0.0
49 0.0
50 0.0
51 0.0
52 0.23574638130417
53 0.23574638130417
54 -0.47149276260835
55 0.0
56 0.0
57 0.0
 Sym=      5.5
 Ene=       0.8413
 Spin= Alpha
 Occup=    0.000000
1 -0.018003211724395
2 -0.031170742759251
3 0.038267589688057
4 0.97188584149535
5 0.0
6 0.0
7 -0.028278279297969
8 0.0
9 0.0
10 -0.13322591107240
11 0.0
12 0.0
13 1.39667175005801
14 0.004331007698475
15 0.004331007698474
16 -0.008662015396949
17 0.0
18 0.0
19 0.0
20 0.018003211724395
21 0.031170742759251
22 -0.038267589688057
23 -0.97188584149535
24 0.0
25 0.0
26 -0.028278279297969
27 0.0
28 0.0
29 -0.13322591107240
30 0.0
31 0.0
32 1.39667175005801
33 -0.004331007698475
34 -0.004331007698474
35 0.008662015396949
36 0.0
37 0.0
38 0.0
39 0.0
40 0.0
41 0.0
42 0.0
43 0.0
44 0.0
45 0.16118895318662
46 0.0
47 0.0
48 1.24129455154046
49 0.0
50 0.0
51 0.058128801460004
52 0.0
53 0.0
54 0.0
55 0.0
56 0.0
57 0.0
 Sym=      7.1
 Ene=       0.8994
 Spin= Alpha
 Occup=    0.000000
1 -0.021732554598225
2 -0.038751515116378
3 0.11892491127496
4 0.68514068079847
5 0.0
6 0.0
7 -0.11901413421772
8 0.0
9 0.0
10 -0.45574007544729
11 0.0
12 0.0
13 1.29241492454370
14 0.006224988641376
15 0.006224988641376
16 -0.012449977282753
17 0.0
18 0.0
19 0.0
20 -0.021732554598225
21 -0.038751515116378
22 0.11892491127496
23 0.68514068079847
24 0.0
25 0.0
26 0.11901413421772
27 0.0
28 0.0
29 0.45574007544729
30 0.0
31 0.0
32 -1.29241492454370
33 0.006224988641376
34 0.006224988641376
35 -0.012449977282753
36 0.0
37 0.0
38 0.0
39 0.022836914538098
40 0.060816499064027
41 -1.03649200268910
42 -1.11900075412655
43 0.0
44 0.0
45 0.0
46 0.0
47 0.0
48 0.0
49 0.0
50 0.0
51 0.0
52 0.058197629961215
53 0.058197629961214
54 -0.11639525992243
55 0.0
56 0.0
57 0.0
 Sym=      2.6
 Ene=       0.9791
 Spin= Alpha
 Occup=    0.000000
1 0.0
2 0.0
3 0.0
4 0.0
5 -0.15093606576987
6 0.0
7 0.0
8 -0.52705025906490
9 0.0
10 0.0
11 0.91836899275674
12 0.0
13 0.0
14 0.0
15 0.0
16 0.0
17 0.0
18 -0.012726821142556
19 0.0
20 0.0
21 0.0
22 0.0
23 0.0
24 0.15093606576987
25 0.0
26 0.0
27 0.52705025906490
28 0.0
29 0.0
30 -0.91836899275674
31 0.0
32 0.0
33 0.0
34 0.0
35 0.0
36 0.0
37 -0.012726821142556
38 0.0
39 0.0
40 0.0
41 0.0
42 0.0
43 0.0
44 0.0
45 0.0
46 0.0
47 0.0
48 0.0
49 0.0
50 0.0
51 0.0
52 0.0
53 0.0
54 0.0
55 0.0
56 0.27008190631846
57 0.0
 Sym=      2.7
 Ene=       0.9791
 Spin= Alpha
 Occup=    0.000000
1 0.0
2 0.0
3 0.0
4 0.0
5 0.0
6 -0.15093606576987
7 0.0
8 0.0
9 -0.52705025906490
10 0.0
11 0.0
12 0.91836899275674
13 0.0
14 0.0
15 0.0
16 0.0
17 0.0
18 0.0
19 -0.012726821142556
20 0.0
21 0.0
22 0.0
23 0.0
24 0.0
25 0.15093606576987
26 0.0
27 0.0
28 0.52705025906490
29 0.0
30 0.0
31 -0.91836899275674
32 0.0
33 0.0
34 0.0
35 0.0
36 0.0
37 0.0
38 -0.012726821142556
39 0.0
40 0.0
41 0.0
42 0.0
43 0.0
44 0.0
45 0.0
46 0.0
47 0.0
48 0.0
49 0.0
50 0.0
51 0.0
52 0.0
53 0.0
54 0.0
55 0.0
56 0.0
57 0.27008190631846
 Sym=      4.2
 Ene=       1.1724
 Spin= Alpha
 Occup=    0.000000
1 0.0
2 0.0
3 0.0
4 0.0
5 -0.15952602180531
6 0.0
7 0.0
8 -0.61604352988482
9 0.0
10 0.0
11 1.28632050709895
12 0.0
13 0.0
14 0.0
15 0.0
16 0.0
17 0.0
18 -0.030403289933392
19 0.0
20 0.0
21 0.0
22 0.0
23 0.0
24 -0.15952602180531
25 0.0
26 0.0
27 -0.61604352988482
28 0.0
29 0.0
30 1.28632050709895
31 0.0
32 0.0
33 0.0
34 0.0
35 0.0
36 0.0
37 0.030403289933392
38 0.0
39 0.0
40 0.0
41 0.0
42 0.0
43 0.093338140732145
44 0.0
45 0.0
46 0.012993040805181
47 0.0
48 0.0
49 -1.13534553469459
50 0.0
51 0.0
52 0.0