[Molden Format]
[Molpro variables]
_NUMVAR=  1082.000000000000    
_AVOGAD= 0.6022140760000000E+24
_BOLTZ= 0.1380649000000000E-22
_CLIGHTSI=  299792458.0000000    
_JOULE= 0.4359744722207100E-17
_JPCAL=  4.184000000000000    
_PLANCK= 0.6626070150000000E-33
_BOHR= 0.5291772109030000E-10
_ECHARG= 0.1602176634000000E-18
_ENULL= 0.8854187812800001E-11
_MU= 0.1660539066600000E-26
_EMASS= 0.9109383701500001E-30
_AMU2AU=  1822.888486217313    
_CLIGHT=  29979245800.00000    
_EV= 0.3674932217565494E-01
_KJOULE= 0.3808798847133432E-03
_KJOULE/MOL= 0.3808798847133432E-03
_CM= 0.4556335252912009E-05
_CM-1= 0.4556335252912009E-05
_DEB2SI= 0.3335640951981520E-29
_KCAL= 0.1593601437640628E-02
_KCAL/MOL= 0.1593601437640628E-02
_KELVIN= 0.3166811563455608E-05
_HERTZ= 0.1519829846057038E-15
_HZ= 0.1519829846057038E-15
_TOA= 0.5291772109030000    
_TOANG= 0.5291772109030000    
_TORAD= 0.1745329251994330E-01
_TOCM=  219474.6313631965    
_TODEBYE=  2.541746473194078    
_TOE= 0.4803204712570263E-09
_TOEV=  27.21138624598803    
_TOHERTZ=  6579683920501656.    
_TOHZ=  6579683920501656.    
_TOK=  315775.0248040668    
_TOKCAL=  627.5094740630558    
_TOKELVIN=  315775.0248040668    
_TOKJ=  2625.499639479825    
_TOKJOULE=  2625.499639479825    
_TOKG= 0.1660539066600000E-26
_ANG=  1.889726124625770    
_ANGSTROM=  1.889726124625770    
_RPAREF=  0.000000000000000    
_RPADISS=  0.000000000000000    
_IGNORE_UNDEF=  2.000000000000000    
_STRICTCHECK=  0.000000000000000    
!SEWARD=  0.000000000000000    
!MULTI=  0.000000000000000    
!DFMULTI=  0.000000000000000    
!NUMHESS=  0.000000000000000    
_SEW_ONEEL=  0.000000000000000    
_CPPDONE=FALSE
_DKROLL_DONE=  0.000000000000000    
_FNUC_DONE=  0.000000000000000    
_FOCKDONE=TRUE
_GRADONE=FALSE
_HESSDONE=TRUE
_INTDONE=TRUE
_SCFDONE=TRUE
_MODUL_BLOCK=FALSE
_MODUL_SLATER=TRUE
_MODUL_MRCC=FALSE
_MODUL_NBO6=FALSE
_MODUL_NECI=FALSE
_MODUL_AIMS=TRUE
_MODUL_HDF5=FALSE
_MODUL_GECCO=FALSE
_ISWINDOWS=FALSE
_MRCC_EXEC=
_FITC_AO_SAVED=FALSE
_FITC_MO_SAVED=FALSE
_LSTYP=SEWARD
_INTYP=INTS
_GEOMTYP=XYZ
_GRADTYP=ALASKA
_DIRECT=FALSE
_DKHO= -1.000000000000000    
_FNUC=  0.000000000000000    
_SYNCM=  0.000000000000000    
_BASIS=6-311G(D,P)
_ZCENTRE=MASS
_ZORIENT=  1.000000000000000    
_NELEC=  18.00000000000000    
!SPIN=  0.000000000000000    
_OPTCONV= 0.7923025471754650E-03
_QSDSTEP=  0.000000000000000    
_QSDIRC=  0.000000000000000    
_PROGRAM=FREQ
_CPUSTEP=  4.040000000000001    
_SYSSTEP= 0.1400000000000000    
_WALLSTEP=  4.170000000000000    
!DFSCF=  0.000000000000000    
!SCSGRD=  0.000000000000000    
_NCEN=  7.000000000000000    
_CPUTOT=  7.500000000000000    
_DFTEXFAC=  1.000000000000000    
_DMX=  0.000000000000000    
_DMY=-0.5480002632695578    
_DMZ= 0.1187665449892092    
_DMX_SCF=  0.000000000000000    
_DMY_SCF=-0.5480002632695578    
_DMZ_SCF= 0.1187665449892092    
_FREQUENCIES= 0.4809567459358958E-04
_HOMO=  7.100000000000000    
_EHOMO=-0.3854198922744675    
_LUMO=  8.100000000000000    
_ELUMO= 0.1582298016637669    
_ENERGY= -95.24251436376016    
_ENERGY_METHOD=HF
_ENERGY_BASIS=6-311G(D,P)
_GEOMETRY_METHOD=HF
_GEOMETRY_BASIS=6-311G(D,P)
_ENUC=  42.32136378453783    
_GRADENERG= -95.24251432030459    
_GRADEXFAC=  9999.000000000000    
_GRADMETHOD=  1.000000000000000    
_NMRMETHOD=  0.000000000000000    
_NMRMAGNET=  0.000000000000000    
_VIRIAL= 0.9373651264789634E-04
!GRID_FREEZE= -1.000000000000000    
!NEESE_INDEX=  0.000000000000000    
_ITERATIONS=  10.00000000000000    
_LASTNELEC=  18.00000000000000    
_LASTSPIN=  0.000000000000000    
_LASTSYM=  1.000000000000000    
_MPP_PROG=  0.000000000000000    
_MSNSTATES=  0.000000000000000    
_RS2PHASE=  0.000000000000000    
_NPROC_MPP=  1.000000000000000    
_NPROC_SMP=  6.000000000000000    
_NUMSTEP=  0.000000000000000    
_OPTCONVMX= 0.4615470166953452E-03
_OPTCONVRMS= 0.2641008490584884E-03
_OPTGRAD= 0.1190933574075621E-03
_OPTGRADMX= 0.6429800346086530E-04
_OPTGRADRMS= 0.3969778580252071E-04
!GMAXLAST= 0.6429800346086530E-04
!DMAXLAST= 0.4615470166953452E-03
!DELAST= 0.1281551959664284E-05
_OPTSTEP=  4.000000000000000    
_ORBITAL=  2100.200000000000    
_PI=  3.141592653589793    
_SEIG_MIN= 0.5428527577833821E-02
_SEWPROP=TRUE
_STATUS=  1.000000000000000    
_SYSTOT= 0.4800000000000000    
_VERSION=  2024001.000000000    
_WALLTOT=  7.970000000000000    
_ZPE= 0.6808098043993602E-01
_DATE=26-Sep-24
_LASTORB=0
_OUTPUT=/home/lme/Theoretische_Chemie/Nomodeco/metric_comparison/rmat_2/H3CNH2.molpro/run/H3CNH2_1.molpro/H3CNH2_1.out
_PGROUP=Cs
_TIME=13:42:22
_LIBMOL=/usr/local/molpro/molpro_2024.1.0_sockets/lib/
_VIGRDC=  0.000000000000000    
!VIBCNT=  0.000000000000000    
!SURFREC=  0.000000000000000    
!XSURFREC=  0.000000000000000    
!XPOLYREC=  0.000000000000000    
!ROTREC=  0.000000000000000    
!POLYREC=  0.000000000000000    
!DIPREC=  0.000000000000000    
!DIP4DREC=  0.000000000000000    
!DIPROT=  0.000000000000000    
!DIP4DROT=  0.000000000000000    
!PTREC=  0.000000000000000    
!PT4DREC=  0.000000000000000    
!VSCFREC=  0.000000000000000    
!VCIREC=  0.000000000000000    
!PVCIREC=  0.000000000000000    
!VMP2REC=  0.000000000000000    
!VMCSCFREC=  0.000000000000000    
!VMRCIREC=  0.000000000000000    
!VIBSTATEREC=  0.000000000000000    
!VIBSTATECNT=  0.000000000000000    
!VIBINFO=  0.000000000000000    
!GAREC=  0.000000000000000    
!SCFORB=  21002.00000000000    
!DEFCORE=  2.000000000000000    
!SCORE=  0.000000000000000    
!NEWMOL=  0.000000000000000    
!NEWSYM=  0.000000000000000    
_SLFILES=slscratch
_NGSSTO=  9.000000000000000    
_SIN=SIN
_COS=COS
_TAN=TAN
_ACOS=ACOS
_ASIN=ASIN
_ATAN=ATAN
_COSH=COSH
_SINH=SINH
_TANH=TANH
_ABS=ABS
_MOD=MOD
_ERF=ERF
_REFC=REFC
_ERFC=ERFC
_HYPOT=HYPOT
_J0=J0
_J1=J1
_JN=JN
_GAMMA=GAMMA
_LGAMMA=LGAMMA
_Y0=Y0
_Y1=Y1
_YN=YN
_EXP=EXP
_LOG=LOG
_LOG10=LOG10
_SQRT=SQRT
_INT=INT
_NINT=NINT
_MAX=MAX
_MIN=MIN
_COSMO=  0.000000000000000    
_COSMOIT=  0.000000000000000    
_COSMOES=  0.000000000000000    
_COSMOEDS=  0.000000000000000    
_COSMOEC=  0.000000000000000    
_COSMOEDCORR=  0.000000000000000    
_FEPSI=  1.000000000000000    
_SL_IsMM=  0.000000000000000    
_SL_NSYM=  2.000000000000000    
_SL_System_BitSw=  0.000000000000000    
_SL_Unique_atoms=  0.000000000000000    
_SL_GRAD=  0.000000000000000    
_SL_MAXUPD_Hess=  5.000000000000000    
_SL_N_PRINT_COD=  5.000000000000000    
_SL_PRINT_CODES=  0.000000000000000    
_SL_BasType=  0.000000000000000    
_SL_Energy_Pred=  0.000000000000000    
_SL_New_Coords=  0.000000000000000    
_SL_Total_Nuclea=  0.000000000000000    
_SL_Highest_Mltp=  0.000000000000000    
_SL_Ref_Geom=  0.000000000000000    
_SL_Symmetry_ope=  1.000000000000000    
_SL_agrad=  0.000000000000000    
_SL_GrdMax=  0.000000000000000    
_SL_GrdNorm=  0.000000000000000    
_SL_GrdRMS=  0.000000000000000    
_SL_Hss_Q=  0.000000000000000    
_SL_Hss_X=  0.000000000000000    
_SL_BMxOld=  0.000000000000000    
_SL_KtB=  0.000000000000000    
_SL_TROld=  0.000000000000000    
_SL_No_of_Intern=  0.000000000000000    
_SL_Hess=  0.000000000000000    
_SL_K=  0.000000000000000    
!LATTICE= -1.000000000000000    
!NEWLATTICE=  0.000000000000000    
!LATGRAD_VAR=FALSE
!SEW_LATTICE=  1.000000000000000    
!AIC_ONEEL=  0.000000000000000    
!LOCAL=  0.000000000000000    
!SAVEDOM= -1.000000000000000    
!RESTDOM= -1.000000000000000    
!SAVEDOM_HF= -1.000000000000000    
!RESTDOM_HF= -1.000000000000000    
!HESSREC=  5300.200000000000    
!FREQREC=  5400.200000000000    
!NMODREC=  5450.200000000000    
!GTASKS=  0.000000000000000    
!HTASKS=  0.000000000000000    
!SAVEDOM_EOM= -1.000000000000000    
!RESTDOM_EOM= -1.000000000000000    
!GRADSTATE= -1.000000000000000    
!DEBUG=  0.000000000000000    
!CFIT_CPHF=  0.000000000000000    
!RDOMAUX_CPHF=  0.000000000000000    
!THRAO_CPHF= 0.1000000000000000E-11
!THRMO_CPHF= 0.1000000000000000E-11
!THROV_CPHF= 0.1000000000000000E-13
!THRSW_CPHF= 0.1000000000000000E-11
!THRPROD_CPHF= 0.1000000000000000E-11
!THRAOPR_CPHF= 0.1000000000000000E-11
!CFIT_SCFGRD=  0.000000000000000    
!RDOMAUX_SCFGRD=  0.000000000000000    
!THRAO_SCFGRD= 0.1000000000000000E-11
!THRMO_SCFGRD= 0.1000000000000000E-11
!THROV_SCFGRD= 0.1000000000000000E-13
!THRSW_SCFGRD= 0.1000000000000000E-11
!THRPROD_SCFGRD= 0.1000000000000000E-11
!THRAOPR_SCFGRD= 0.1000000000000000E-11
!LOCFIT_SCF=  0.000000000000000    
!LOCFIT_MP2=  0.000000000000000    
_RIDOM=  0.000000000000000    
!CC2_METHOD=  0.000000000000000    
_BASIS2006=FALSE
_SVDDEL= -1.000000000000000    
_SVDDELA= -1.000000000000000    
_SVDDELP= -1.000000000000000    
_SVDDELF= -1.000000000000000    
_SVDDELS= -1.000000000000000    
_SVDDEL_ABS= -1.000000000000000    
_SVDDELA_ABS= -1.000000000000000    
_SVDDELP_ABS= -1.000000000000000    
_SVDDELF_ABS= -1.000000000000000    
_SVDDELS_ABS= -1.000000000000000    
_MAXBASIS=  0.000000000000000    
!OPT_CONICAL=  0.000000000000000    
!CLEARSP_JGRID=  0.000000000000000    
_GRDHYBR=  0.000000000000000    
_STATEGRAD=  1.000000000000000    
_4EXT_NDISKS=  1.000000000000000    
!EMBEDFLAG=  1.000000000000000    
!EMBED=FALSE
!EMBED_F12=FALSE
!EMBEDNUC=  0.000000000000000    
_EMBEDENERGY=  0.000000000000000    
!EMBED_DFC=FALSE
!NUM_VOIDS=  0.000000000000000    
_IBODY=  0.000000000000000    
_EMBE_CORR=  0.000000000000000    
!EMBED_PROJ=FALSE
!EMB_PROJ_ZMU=  1000000.000000000    
!CORRECTION_HF=  0.000000000000000    
!EMBED_AORB=  0.000000000000000    
!EMBED_NACORR=  0.000000000000000    
!EMBED_MP2=FALSE
!EMBED_TRUNC_PERTURBATION=FALSE
!EMBED_FROZEN=  0.000000000000000    
!EMBED_ACTIVE=  0.000000000000000    
_CHANGE_BASIS=FALSE
_RESTORE_BASIS=FALSE
_FIX_EMBED_GUESS=FALSE
_EMBED_SCF=FALSE
_NEOBAS=FALSE
_NEOOVE=FALSE
_PRINEO=FALSE
_HUZINAGA_T=FALSE
_HUZINAGA_F=FALSE
_HUZINAGA=FALSE
_HUZINAGA_CORRECT=FALSE
!FASTLATGRAD=  1.000000000000000    
!FASTVLAMBDA= -1.000000000000000    
!IFORCE= -1.000000000000000    
!USESYM= -1.000000000000000    
_SINDEX=  0.000000000000000    
_AVDOM_OSV=  0.000000000000000    
_AVDOM_PNO=  0.000000000000000    
_AVDOM_PNOCC=  0.000000000000000    
_AVDOM_TNO=  0.000000000000000    
_AVDOM_TNOIT=  0.000000000000000    
_AVDOM_PAO=  0.000000000000000    
_AVDOM_LMO=  0.000000000000000    
_CC2OSV_FLAG=  0.000000000000000    
_EOMCCSD_CONV=FALSE
_TMADC2_FLAG=FALSE
_PROPADC2_FLAG=FALSE
_LEN_VirQ=  0.000000000000000    
_GRDCC2LR_FLAG=FALSE
_GRDADC2_FLAG=FALSE
_RO_VGLOBAL=  0.000000000000000    
_OPT=FALSE
_FREQ=FALSE
_HESS=FALSE
_CMRCC_callName=EMPTY
_CMRCC_callCount=  0.000000000000000    
_GECCO_CIROOT=  1.000000000000000    
_SYM_CATION=  1.000000000000000    
_MON_A=FALSE
_MON_B=FALSE
_MAXGEOM=  100.0000000000000    
!MAXGEOM=  100.0000000000000    
_NCORE=  0.000000000000000    
_NLARGECORE=  0.000000000000000    
GX1=  0.000000000000000    
GY1=-0.1315110144018229E-01
GZ1= 0.7356668439324197    
GX2=  0.000000000000000    
GY2= 0.6951796235862144E-01
GZ2=-0.7162148142036798    
GX3=  0.000000000000000    
GY3= -1.029535939603100    
GZ3=  1.133714040028060    
GX4= 0.8035825437279088    
GY4=-0.3886108427409910    
GZ4= -1.096088629571301    
GX5=-0.8035825437279088    
GY5=-0.3886108427409910    
GZ5= -1.096088629571301    
GX6= 0.8736744455133362    
GY6= 0.4987194342363101    
GZ6=  1.125170413983677    
GX7=-0.8736744455133362    
GY7= 0.4987194342363101    
GZ7=  1.125170413983677    
CX1=  0.000000000000000    
CY1=-0.2485197995911607E-01
CZ1=  1.390208854000083    
NX2=  0.000000000000000    
NY2= 0.1313699095998379    
NZ2= -1.353449845244686    
HX3=  0.000000000000000    
HY3= -1.945540961309116    
HZ3=  2.142409039296051    
HX4=  1.518550926175860    
HY4=-0.7343680618404875    
HZ4= -2.071307318206145    
HX5= -1.518550926175860    
HY5=-0.7343680618404875    
HZ5= -2.071307318206145    
HX6=  1.651005424104485    
HY6= 0.9424431437349390    
HZ6=  2.126263925960948    
HX7= -1.651005424104485    
HY7= 0.9424431437349390    
HZ7=  2.126263925960948    
[Atoms] Angs
C     1    6         0.0000000000       -0.0131511014        0.7356668439
N     2    7         0.0000000000        0.0695179624       -0.7162148142
H     3    1         0.0000000000       -1.0295359396        1.1337140400
H     4    1         0.8035825437       -0.3886108427       -1.0960886296
H     5    1        -0.8035825437       -0.3886108427       -1.0960886296
H     6    1         0.8736744455        0.4987194342        1.1251704140
H     7    1        -0.8736744455        0.4987194342        1.1251704140
[GTO]
   1 0
 s    6  1.00
  0.4563240000D+04  0.1966650249D-02
  0.6820240000D+03  0.1523060193D-01
  0.1549730000D+03  0.7612690966D-01
  0.4445530000D+02  0.2608010331D+00
  0.1302900000D+02  0.6164620782D+00
  0.1827730000D+01  0.2210060280D+00
 s    3  1.00
  0.2096420000D+02  0.1146600807D+00
  0.4803310000D+01  0.9199996477D+00
  0.1459330000D+01 -0.3030682134D-02
 s    1  1.00
  0.4834560000D+00  0.1000000000D+01
 s    1  1.00
  0.1455850000D+00  0.1000000000D+01
 p    3  1.00
  0.2096420000D+02  0.4024869267D-01
  0.4803310000D+01  0.2375939567D+00
  0.1459330000D+01  0.8158538515D+00
 p    1  1.00
  0.4834560000D+00  0.1000000000D+01
 p    1  1.00
  0.1455850000D+00  0.1000000000D+01
 d    1  1.00
  0.6260000000D+00  0.1000000000D+01
  
   2 0
 s    6  1.00
  0.6293480000D+04  0.1969788147D-02
  0.9490440000D+03  0.1496128592D-01
  0.2187760000D+03  0.7350053084D-01
  0.6369160000D+02  0.2489367658D+00
  0.1882820000D+02  0.6024594331D+00
  0.2720230000D+01  0.2562017589D+00
 s    3  1.00
  0.3063310000D+02  0.1119060795D+00
  0.7026140000D+01  0.9216666549D+00
  0.2112050000D+01 -0.2569191826D-02
 s    1  1.00
  0.6840090000D+00  0.1000000000D+01
 s    1  1.00
  0.2008780000D+00  0.1000000000D+01
 p    3  1.00
  0.3063310000D+02  0.3831191864D-01
  0.7026140000D+01  0.2374031155D+00
  0.2112050000D+01  0.8175923978D+00
 p    1  1.00
  0.6840090000D+00  0.1000000000D+01
 p    1  1.00
  0.2008780000D+00  0.1000000000D+01
 d    1  1.00
  0.9130000000D+00  0.1000000000D+01
  
   3 0
 s    3  1.00
  0.3386500000D+02  0.2549381454D-01
  0.5094790000D+01  0.1903731086D+00
  0.1158790000D+01  0.8521614860D+00
 s    1  1.00
  0.3258400000D+00  0.1000000000D+01
 s    1  1.00
  0.1027410000D+00  0.1000000000D+01
 p    1  1.00
  0.7500000000D+00  0.1000000000D+01
  
   4 0
 s    3  1.00
  0.3386500000D+02  0.2549381454D-01
  0.5094790000D+01  0.1903731086D+00
  0.1158790000D+01  0.8521614860D+00
 s    1  1.00
  0.3258400000D+00  0.1000000000D+01
 s    1  1.00
  0.1027410000D+00  0.1000000000D+01
 p    1  1.00
  0.7500000000D+00  0.1000000000D+01
  
   5 0
 s    3  1.00
  0.3386500000D+02  0.2549381454D-01
  0.5094790000D+01  0.1903731086D+00
  0.1158790000D+01  0.8521614860D+00
 s    1  1.00
  0.3258400000D+00  0.1000000000D+01
 s    1  1.00
  0.1027410000D+00  0.1000000000D+01
 p    1  1.00
  0.7500000000D+00  0.1000000000D+01
  
   6 0
 s    3  1.00
  0.3386500000D+02  0.2549381454D-01
  0.5094790000D+01  0.1903731086D+00
  0.1158790000D+01  0.8521614860D+00
 s    1  1.00
  0.3258400000D+00  0.1000000000D+01
 s    1  1.00
  0.1027410000D+00  0.1000000000D+01
 p    1  1.00
  0.7500000000D+00  0.1000000000D+01
  
   7 0
 s    3  1.00
  0.3386500000D+02  0.2549381454D-01
  0.5094790000D+01  0.1903731086D+00
  0.1158790000D+01  0.8521614860D+00
 s    1  1.00
  0.3258400000D+00  0.1000000000D+01
 s    1  1.00
  0.1027410000D+00  0.1000000000D+01
 p    1  1.00
  0.7500000000D+00  0.1000000000D+01


[MO]
 Sym=      1.1
 Ene=     -15.5249
 Spin= Alpha
 Occup=    2.000000
1 0.000008671403420
2 -0.000034191561708
3 0.000139071743634
4 0.000700619647024
5 0.0
6 0.000024865659638
7 -0.000048512300448
8 0.0
9 -0.000068072746090
10 -0.000336800269216
11 0.0
12 0.000067557233689
13 -0.000276407850651
14 -0.000101100068381
15 -0.000059581474499
16 0.000160681542880
17 0.0
18 0.0
19 0.000042826311471
20 0.55762739516671
21 0.46824430622135
22 0.005123927515948
23 -0.001204509245891
24 0.0
25 -0.001758923877185
26 0.000529922205203
27 0.0
28 0.000672693606704
29 -0.000230560626609
30 0.0
31 -0.000047001859417
32 -0.000274823881894
33 -0.000022788674902
34 0.000145292585654
35 -0.000122503910752
36 0.0
37 0.0
38 -0.000036995748593
39 0.000002865740946
40 -0.000070325800392
41 -0.000013019496702
42 0.0
43 0.000006491530830
44 0.000035467893779
45 0.000263062281069
46 0.000205432494994
47 0.000067875312773
48 -0.000066524065919
49 -0.000024975745423
50 0.000077433268766
51 0.000263062281069
52 0.000205432494994
53 0.000067875312773
54 0.000066524065919
55 -0.000024975745423
56 0.000077433268766
57 0.000020508032976
58 -0.000071296154644
59 -0.000018031291260
60 -0.000015191908284
61 -0.000017014152081
62 -0.000007967936631
63 0.000020508032976
64 -0.000071296154644
65 -0.000018031291260
66 0.000015191908284
67 -0.000017014152081
68 -0.000007967936631
 Sym=      2.1
 Ene=     -11.2366
 Spin= Alpha
 Occup=    2.000000
1 0.56339791541989
2 0.46655149544331
3 0.004261525853204
4 -0.001253111086311
5 0.0
6 -0.000013381489654
7 -0.000532054464265
8 0.0
9 0.000027711092633
10 0.000513095752653
11 0.0
12 -0.000036195494255
13 -0.000071965877653
14 0.000128950599880
15 0.000077624423505
16 -0.000206575023386
17 0.0
18 0.0
19 0.000029647462307
20 -0.000090004282240
21 -0.000143791043630
22 0.000287938510584
23 0.000212152425522
24 0.0
25 -0.000014378325663
26 0.000099452835102
27 0.0
28 0.000007849689614
29 0.000513387072676
30 0.0
31 0.000018493503883
32 0.000117485708924
33 -0.000128862205773
34 -0.000084828569006
35 0.000213690774779
36 0.0
37 0.0
38 -0.000055450987030
39 0.000352248039040
40 0.000094920828157
41 0.000241260442247
42 0.0
43 -0.000012007885972
44 -0.000030527147070
45 0.000002825344317
46 0.000071060118768
47 -0.000015875936607
48 -0.000049652706802
49 0.000022497395889
50 0.000026789049466
51 0.000002825344317
52 0.000071060118768
53 -0.000015875936607
54 0.000049652706802
55 0.000022497395889
56 0.000026789049466
57 0.000349727607206
58 0.000071604799577
59 0.000267450280608
60 0.000025648248165
61 0.000016673107543
62 -0.000021293511324
63 0.000349727607206
64 0.000071604799577
65 0.000267450280608
66 -0.000025648248165
67 0.000016673107543
68 -0.000021293511324
 Sym=      3.1
 Ene=      -1.1703
 Spin= Alpha
 Occup=    2.000000
1 -0.050711354469105
2 -0.083273809585804
3 0.21105136671925
4 0.054966587408268
5 0.0
6 0.000531400818683
7 -0.038386275266839
8 0.0
9 -0.000185109803099
10 -0.078931357301275
11 0.0
12 -0.005303402027862
13 0.000705836241369
14 -0.010544620431683
15 -0.011301224347507
16 0.021845844779190
17 0.0
18 0.0
19 0.000126891927656
20 -0.099221702487171
21 -0.16406034013289
22 0.43537758975352
23 0.31923158152400
24 0.0
25 -0.026785787201641
26 0.015669342213321
27 0.0
28 -0.043921807247621
29 0.032388538284338
30 0.0
31 -0.016057757733419
32 0.024425140901735
33 0.000738983069725
34 -0.005616172380473
35 0.004877189310748
36 0.0
37 0.0
38 0.001488922814346
39 0.026119958650445
40 0.039145907327391
41 -0.002519232583416
42 0.0
43 0.008886616524662
44 -0.004520124691502
45 0.080165036519788
46 0.080211147303763
47 0.000467037412569
48 -0.017329864840216
49 0.007754658071089
50 0.009289502726874
51 0.080165036519788
52 0.080211147303763
53 0.000467037412569
54 0.017329864840216
55 0.007754658071089
56 0.009289502726874
57 0.026523400930009
58 0.042515190495075
59 -0.001133210227548
60 -0.007936744316367
61 -0.004524269712068
62 -0.004442359614467
63 0.026523400930009
64 0.042515190495075
65 -0.001133210227548
66 0.007936744316367
67 -0.004524269712068
68 -0.004442359614467
 Sym=      4.1
 Ene=      -0.8959
 Spin= Alpha
 Occup=    2.000000
1 -0.088873940097011
2 -0.14726525499227
3 0.37893792855891
4 0.24751733898878
5 0.0
6 0.004406977344900
7 0.039288014938758
8 0.0
9 0.006916184248169
10 0.050738897037961
11 0.0
12 -0.006152843105048
13 0.024432130553868
14 0.005238053063267
15 0.003233177308189
16 -0.008471230371456
17 0.0
18 0.0
19 -0.000974381342788
20 0.040581912638952
21 0.067429638884299
22 -0.18081630005363
23 -0.15778602735835
24 0.0
25 0.025651811735902
26 0.068738864291602
27 0.0
28 0.041365522189226
29 0.11347367610905
30 0.0
31 0.016232563482975
32 0.050432541794360
33 -0.009754849755498
34 -0.003920482646725
35 0.013675332402224
36 0.0
37 0.0
38 -0.007589058294951
39 0.081357199844082
40 0.10892803208384
41 0.005126988143065
42 0.0
43 0.017049369687767
44 -0.004702204048435
45 -0.063955808508808
46 -0.078498086602134
47 -0.011507883476980
48 0.012018812316461
49 -0.004356653506825
50 -0.001569592892665
51 -0.063955808508808
52 -0.078498086602134
53 -0.011507883476980
54 -0.012018812316461
55 -0.004356653506825
56 -0.001569592892665
57 0.084962532128481
58 0.11776271390315
59 0.009168007942794
60 -0.015637084039621
61 -0.008790497353191
62 -0.004781303398761
63 0.084962532128481
64 0.11776271390315
65 0.009168007942794
66 0.015637084039621
67 -0.008790497353191
68 -0.004781303398761
 Sym=      1.2
 Ene=      -0.6638
 Spin= Alpha
 Occup=    2.000000
1 0.0
2 0.0
3 0.0
4 0.0
5 0.095787682574648
6 0.0
7 0.0
8 0.15776674800687
9 0.0
10 0.0
11 0.099358881910231
12 0.0
13 0.0
14 0.0
15 0.0
16 0.0
17 0.012553060881643
18 -0.006963804712250
19 0.0
20 0.0
21 0.0
22 0.0
23 0.0
24 0.17900810555063
25 0.0
26 0.0
27 0.28234343232593
28 0.0
29 0.0
30 0.16760347865892
31 0.0
32 0.0
33 0.0
34 0.0
35 0.0
36 -0.025466518224082
37 -0.004065159773873
38 0.0
39 0.0
40 0.0
41 0.0
42 0.004039121776985
43 0.0
44 0.0
45 0.12199048503888
46 0.18034615193620
47 0.047986149463241
48 -0.010148087170379
49 0.011398714143140
50 0.012340736032854
51 -0.12199048503888
52 -0.18034615193620
53 -0.047986149463241
54 -0.010148087170379
55 -0.011398714143140
56 -0.012340736032854
57 0.061288973434094
58 0.081062511613502
59 0.020885340861973
60 -0.003359450619330
61 -0.004941278680100
62 -0.002224097663738
63 -0.061288973434094
64 -0.081062511613502
65 -0.020885340861973
66 -0.003359450619330
67 0.004941278680100
68 0.002224097663738
 Sym=      5.1
 Ene=      -0.6020
 Spin= Alpha
 Occup=    2.000000
1 0.002781085013128
2 0.004288597254701
3 -0.004144876338417
4 -0.025901132714591
5 0.0
6 0.13013441475687
7 -0.098209533944110
8 0.0
9 0.20862207571164
10 -0.16832210217671
11 0.0
12 0.10968144904183
13 -0.075799864111516
14 0.002414925916536
15 -0.026864276309778
16 0.024449350393242
17 0.0
18 0.0
19 0.001421763747469
20 -0.016202043872560
21 -0.027522568819906
22 0.083722565226722
23 0.095356195895843
24 0.0
25 0.10143602580932
26 0.10530567283830
27 0.0
28 0.15981940120200
29 0.16963424702040
30 0.0
31 0.12868172108657
32 0.10654059942704
33 -0.006738686714405
34 -0.010571489778741
35 0.017310176493146
36 0.0
37 0.0
38 -0.001087607772365
39 -0.13595584973214
40 -0.20882730359776
41 -0.084564614873396
42 0.0
43 -0.014673131136423
44 0.003156848488724
45 -0.056751598774101
46 -0.078528139182784
47 -0.028888438450958
48 0.010468162169453
49 0.003353261464567
50 0.002407837779478
51 -0.056751598774101
52 -0.078528139182784
53 -0.028888438450958
54 -0.010468162169453
55 0.003353261464567
56 0.002407837779478
57 0.017000200000175
58 0.029295360878643
59 0.013519554492317
60 -0.003915908708385
61 0.005302095523993
62 -0.005575707335849
63 0.017000200000175
64 0.029295360878643
65 0.013519554492317
66 0.003915908708385
67 0.005302095523993
68 -0.005575707335849
 Sym=      6.1
 Ene=      -0.5569
 Spin= Alpha
 Occup=    2.000000
1 -0.003386306042647
2 -0.006054304100406
3 0.021086493426707
4 -0.005309050996129
5 0.0
6 -0.11904533904384
7 -0.12866662579317
8 0.0
9 -0.18981955556826
10 -0.21505088233810
11 0.0
12 -0.12780695792544
13 -0.11422807339026
14 -0.029860311063397
15 0.000083103908656
16 0.029777207154741
17 0.0
18 0.0
19 -0.011351209080116
20 0.001377740825618
21 0.002303681171458
22 -0.007192576201190
23 0.009554983172941
24 0.0
25 -0.026250320456946
26 0.14918956534388
27 0.0
28 -0.045631680393767
29 0.23649339548213
30 0.0
31 -0.046546295256932
32 0.17655707767026
33 -0.012060205222714
34 -0.001824021536224
35 0.013884226758938
36 0.0
37 0.0
38 -0.019614389739532
39 0.062058615837769
40 0.095905949440145
41 0.045041782741723
42 0.0
43 0.003666144111764
44 -0.008936709090322
45 -0.045307733722350
46 -0.077970184886581
47 -0.033181611080903
48 0.008058740065173
49 -0.006517340934094
50 0.007769283741532
51 -0.045307733722350
52 -0.077970184886581
53 -0.033181611080903
54 -0.008058740065173
55 -0.006517340934094
56 0.007769283741532
57 -0.088798743012173
58 -0.13650738201968
59 -0.053505467978222
60 0.010854389994790
61 0.000488691376865
62 -0.001147280281546
63 -0.088798743012173
64 -0.13650738201968
65 -0.053505467978222
66 -0.010854389994790
67 0.000488691376865
68 -0.001147280281546
 Sym=      2.2
 Ene=      -0.5164
 Spin= Alpha
 Occup=    2.000000
1 0.0
2 0.0
3 0.0
4 0.0
5 0.16830772194123
6 0.0
7 0.0
8 0.26482225873019
9 0.0
10 0.0
11 0.18037455535615
12 0.0
13 0.0
14 0.0
15 0.0
16 0.0
17 0.025160562317002
18 0.026685085581798
19 0.0
20 0.0
21 0.0
22 0.0
23 0.0
24 -0.10483076734901
25 0.0
26 0.0
27 -0.16075302829888
28 0.0
29 0.0
30 -0.11792434166206
31 0.0
32 0.0
33 0.0
34 0.0
35 0.0
36 0.016468675684757
37 0.016985845386616
38 0.0
39 0.0
40 0.0
41 0.0
42 0.009887090905761
43 0.0
44 0.0
45 -0.082869629650272
46 -0.13464874174808
47 -0.067839000557348
48 0.006395357088060
49 -0.006980493431791
50 -0.006589961717545
51 0.082869629650272
52 0.13464874174808
53 0.067839000557348
54 0.006395357088060
55 0.006980493431791
56 0.006589961717545
57 0.12855933736919
58 0.20890122709586
59 0.094470291455038
60 -0.007001353603952
61 -0.010914335405954
62 -0.007195581545080
63 -0.12855933736919
64 -0.20890122709586
65 -0.094470291455038
66 -0.007001353603952
67 0.010914335405954
68 0.007195581545080
 Sym=      7.1
 Ene=      -0.3854
 Spin= Alpha
 Occup=    2.000000
1 0.005507148170998
2 0.009267099712276
3 -0.026792316832612
4 0.031570288801425
5 0.0
6 -0.073952292380616
7 0.031013863347232
8 0.0
9 -0.11283572222904
10 0.048708486362333
11 0.0
12 -0.077001041576264
13 0.006732644485627
14 -0.009092143826021
15 0.015418585288422
16 -0.006326441462401
17 0.0
18 0.0
19 -0.032784181875764
20 -0.028325763252425
21 -0.048293872034984
22 0.14647703944162
23 0.19428384028712
24 0.0
25 0.22946522488875
26 -0.061979360160147
27 0.0
28 0.34532288890135
29 -0.090427832808076
30 0.0
31 0.42960720556411
32 -0.13676283492087
33 0.005752225269301
34 -0.010810273819163
35 0.005058048549862
36 0.0
37 0.0
38 0.002097607565365
39 0.089746877614552
40 0.17704482484839
41 0.095595717358073
42 0.0
43 0.007820166182890
44 -0.002550083504149
45 -0.040111954684529
46 -0.049895821962423
47 -0.029190673651851
48 0.008414000652525
49 0.017012698091213
50 -0.008600407166008
51 -0.040111954684529
52 -0.049895821962423
53 -0.029190673651851
54 -0.008414000652525
55 0.017012698091213
56 -0.008600407166008
57 -0.036421087900656
58 -0.083565537550204
59 -0.030382322351541
60 0.005888939170462
61 -0.002165162426701
62 0.003930659078412
63 -0.036421087900656
64 -0.083565537550204
65 -0.030382322351541
66 -0.005888939170462
67 -0.002165162426701
68 0.003930659078412
 Sym=      8.1
 Ene=       0.1582
 Spin= Alpha
 Occup=    0.000000
1 0.028312805992458
2 0.044700488402697
3 -0.009802382853997
4 -1.65176729107229
5 0.0
6 0.013972944868408
7 -0.054704290982960
8 0.0
9 0.008529489719964
10 -0.066366420134629
11 0.0
12 0.081065382471776
13 -0.22303158844625
14 0.000568880192257
15 0.003697428618640
16 -0.004266308810897
17 0.0
18 0.0
19 -0.005177959618220
20 0.026433300331056
21 0.043121116371685
22 -0.084000772373982
23 -0.63906270604149
24 0.0
25 0.034867440242958
26 0.042005030673609
27 0.0
28 0.050557888207940
29 0.037016570084691
30 0.0
31 0.12639775119102
32 0.31424418048607
33 -0.000028661321957
34 -0.001396750590345
35 0.001425411912302
36 0.0
37 0.0
38 -0.002622621257421
39 0.002686879131840
40 0.002272683435701
41 0.79460399510155
42 0.0
43 -0.001709416873968
44 -0.005302407691959
45 0.015240057833394
46 -0.059568726987044
47 0.66346827952273
48 0.005053391073367
49 -0.000498448792114
50 -0.004580386857625
51 0.015240057833394
52 -0.059568726987044
53 0.66346827952273
54 -0.005053391073367
55 -0.000498448792114
56 -0.004580386857625
57 0.000862357401692
58 0.039665376300530
59 0.54347310576068
60 -0.002857154620864
61 -0.002100239224023
62 -0.006702869565027
63 0.000862357401692
64 0.039665376300530
65 0.54347310576068
66 0.002857154620864
67 -0.002100239224023
68 -0.006702869565027
 Sym=      9.1
 Ene=       0.1943
 Spin= Alpha
 Occup=    0.000000
1 -0.036624902280282
2 -0.059306059988626
3 0.079069009637396
4 1.38420353786282
5 0.0
6 0.016504732378394
7 0.015235975591870
8 0.0
9 0.006843740248195
10 -0.020254149447345
11 0.0
12 0.17854016911539
13 0.22334363143995
14 0.002046197253043
15 0.000055432883509
16 -0.002101630136552
17 0.0
18 0.0
19 -0.003988115521198
20 0.029251803487190
21 0.047793733100625
22 -0.080497101471463
23 -0.86221269896004
24 0.0
25 0.039813167596738
26 0.009086505194893
27 0.0
28 0.058047584201802
29 -0.017971384824940
30 0.0
31 0.16324523070819
32 0.10305561214483
33 -0.001948193533677
34 -0.002786373972322
35 0.004734567505999
36 0.0
37 0.0
38 0.000401610848447
39 -0.010538264537938
40 0.078778581496057
41 -0.56094241815379
42 0.0
43 0.002031018423211
44 -0.008042068684219
45 0.019455306988008
46 -0.060019017862115
47 0.81159103464230
48 -0.000320224756348
49 0.001761565360430
50 -0.007216647794245
51 0.019455306988008
52 -0.060019017862115
53 0.81159103464230
54 0.000320224756348
55 0.001761565360430
56 -0.007216647794245
57 -0.011958445505117
58 0.074149666070225
59 -0.92583533531937
60 -0.003254933805773
61 -0.004384957633208
62 -0.007561521890939
63 -0.011958445505117
64 0.074149666070225
65 -0.92583533531937
66 0.003254933805773
67 -0.004384957633208
68 -0.007561521890939
 Sym=      3.2
 Ene=       0.2106
 Spin= Alpha
 Occup=    0.000000
1 0.0
2 0.0
3 0.0
4 0.0
5 -0.095979485050920
6 0.0
7 0.0
8 -0.044786640846084
9 0.0
10 0.0
11 -0.75916106412844
12 0.0
13 0.0
14 0.0
15 0.0
16 0.0
17 0.014182970827668
18 0.018844342750014
19 0.0
20 0.0
21 0.0
22 0.0
23 0.0
24 -0.086472937362058
25 0.0
26 0.0