 Entering Gaussian System, Link 0=g16
 Input=trans_a_deut_bond_scan.com
 Output=trans_a_deut_bond_scan.log
 Initial command:
 /usr/local/g16/l1.exe "/scratch/praktikum/Gau-13273.inp" -scrdir="/scratch/praktikum/"
 Entering Link 1 = /usr/local/g16/l1.exe PID=     13275.
  
 Copyright (c) 1988,1990,1992,1993,1995,1998,2003,2009,2016,
            Gaussian, Inc.  All Rights Reserved.
  
 This is part of the Gaussian(R) 16 program.  It is based on
 the Gaussian(R) 09 system (copyright 2009, Gaussian, Inc.),
 the Gaussian(R) 03 system (copyright 2003, Gaussian, Inc.),
 the Gaussian(R) 98 system (copyright 1998, Gaussian, Inc.),
 the Gaussian(R) 94 system (copyright 1995, Gaussian, Inc.),
 the Gaussian 92(TM) system (copyright 1992, Gaussian, Inc.),
 the Gaussian 90(TM) system (copyright 1990, Gaussian, Inc.),
 the Gaussian 88(TM) system (copyright 1988, Gaussian, Inc.),
 the Gaussian 86(TM) system (copyright 1986, Carnegie Mellon
 University), and the Gaussian 82(TM) system (copyright 1983,
 Carnegie Mellon University). Gaussian is a federally registered
 trademark of Gaussian, Inc.
  
 This software contains proprietary and confidential information,
 including trade secrets, belonging to Gaussian, Inc.
  
 This software is provided under written license and may be
 used, copied, transmitted, or stored only in accord with that
 written license.
  
 The following legend is applicable only to US Government
 contracts under FAR:
  
                    RESTRICTED RIGHTS LEGEND
  
 Use, reproduction and disclosure by the US Government is
 subject to restrictions as set forth in subparagraphs (a)
 and (c) of the Commercial Computer Software - Restricted
 Rights clause in FAR 52.227-19.
  
 Gaussian, Inc.
 340 Quinnipiac St., Bldg. 40, Wallingford CT 06492
  
  
 ---------------------------------------------------------------
 Warning -- This program may not be used in any manner that
 competes with the business of Gaussian, Inc. or will provide
 assistance to any competitor of Gaussian, Inc.  The licensee
 of this program is prohibited from giving any competitor of
 Gaussian, Inc. access to this program.  By using this program,
 the user acknowledges that Gaussian, Inc. is engaged in the
 business of creating and licensing software in the field of
 computational chemistry and represents and warrants to the
 licensee that it is not a competitor of Gaussian, Inc. and that
 it will not use this program in any manner prohibited above.
 ---------------------------------------------------------------
  

 Cite this work as:
 Gaussian 16, Revision A.03,
 M. J. Frisch, G. W. Trucks, H. B. Schlegel, G. E. Scuseria, 
 M. A. Robb, J. R. Cheeseman, G. Scalmani, V. Barone, 
 G. A. Petersson, H. Nakatsuji, X. Li, M. Caricato, A. V. Marenich, 
 J. Bloino, B. G. Janesko, R. Gomperts, B. Mennucci, H. P. Hratchian, 
 J. V. Ortiz, A. F. Izmaylov, J. L. Sonnenberg, D. Williams-Young, 
 F. Ding, F. Lipparini, F. Egidi, J. Goings, B. Peng, A. Petrone, 
 T. Henderson, D. Ranasinghe, V. G. Zakrzewski, J. Gao, N. Rega, 
 G. Zheng, W. Liang, M. Hada, M. Ehara, K. Toyota, R. Fukuda, 
 J. Hasegawa, M. Ishida, T. Nakajima, Y. Honda, O. Kitao, H. Nakai, 
 T. Vreven, K. Throssell, J. A. Montgomery, Jr., J. E. Peralta, 
 F. Ogliaro, M. J. Bearpark, J. J. Heyd, E. N. Brothers, K. N. Kudin, 
 V. N. Staroverov, T. A. Keith, R. Kobayashi, J. Normand, 
 K. Raghavachari, A. P. Rendell, J. C. Burant, S. S. Iyengar, 
 J. Tomasi, M. Cossi, J. M. Millam, M. Klene, C. Adamo, R. Cammi, 
 J. W. Ochterski, R. L. Martin, K. Morokuma, O. Farkas, 
 J. B. Foresman, and D. J. Fox, Gaussian, Inc., Wallingford CT, 2016.
 
 ******************************************
 Gaussian 16:  AS64L-G16RevA.03 25-Dec-2016
                 8-Nov-2024 
 ******************************************
 %nprocs=6
 Will use up to    6 processors via shared memory.
 %chk=trans_acetic_acid_new_freq.chk
 ----------------------------------------------------------------------
 # B3LYP/6-311++G(3df,3pd) SCAN SCF=VERYTIGHT INT=ULTRAFINE # GEOM=NOCR
 OWD NOSYMM POP=ALWAYS
 ----------------------------------------------------------------------
 1/38=1,60=1,172=1/1,8;
 2/12=1,15=1,17=6,18=5,29=3,40=1/2;
 3/5=4,6=6,7=1616,11=2,25=1,30=1,74=-5,75=-5/1,2,3;
 4//1;
 5/5=2,17=3,38=5/2;
 6/7=2,8=2,9=2,10=2,18=1,28=1/1;
 1/60=1/8(1);
 99/9=1/99;
 2/12=1,15=1,29=3/2;
 3/5=4,6=6,7=1616,11=2,25=1,30=1,74=-5,75=-5/1,2,3;
 4/5=5,16=3,69=1/1;
 5/5=2,17=3,38=5/2;
 6/7=2,8=2,9=2,10=2,18=1,28=1/1;
 1/60=1/8(-5);
 99/9=1/99;
 ---------------------------
 Trans_Acetic_acid bond_scan
 ---------------------------
 Symbolic Z-matrix:
 Charge =  0 Multiplicity = 1
 O
 H(Iso=2.014)         1    B1
 C                    1    B2       2    A1
 O                    3    B3       1    A2       2    D1       0
 C                    3    B4       1    A3       4    D2       0
 H                    5    B5       3    A4       1    D3       0
 H                    5    B6       3    A5       1    D4       0
 H                    5    B7       3    A6       1    D5       0
       Variables:
  B1                    0.46781Scan 150   0.01   
  B2                    1.3552                   
  B3                    1.20219                  
  B4                    1.50197                  
  B5                    1.0846                   
  B6                    1.08974                  
  B7                    1.08974                  
  A1                  107.01749                  
  A2                  122.33129                  
  A3                  111.61562                  
  A4                  109.64155                  
  A5                  109.81727                  
  A6                  109.81708                  
  D1                    0.                       
  D2                  180.                       
  D3                 -179.99944                  
  D4                  -58.88367                  
  D5                   58.88465                  
 
 Scan the potential surface.
 Variable   Value     No. Steps Step-Size
 -------- ----------- --------- ---------
     1       0.467806     150      0.0100
 A total of    151 points will be computed.
 ---------------------------------------------------------------------------------------------------
                            Z-MATRIX (ANGSTROMS AND DEGREES)
   CD    Cent   Atom    N1       Length/X        N2       Alpha/Y        N3        Beta/Z          J
 ---------------------------------------------------------------------------------------------------
      1      1  O 
      2      2  H        1   0.467806(     1)
      3      3  C        1   1.355197(     2)      2  107.017(     8)
      4      4  O        3   1.202194(     3)      1  122.331(     9)      2    0.000(    14)      0
      5      5  C        3   1.501970(     4)      1  111.616(    10)      4  180.000(    15)      0
      6      6  H        5   1.084596(     5)      3  109.642(    11)      1 -179.999(    16)      0
      7      7  H        5   1.089744(     6)      3  109.817(    12)      1  -58.884(    17)      0
      8      8  H        5   1.089744(     7)      3  109.817(    13)      1   58.885(    18)      0
 ---------------------------------------------------------------------------------------------------
                         Z-Matrix orientation:                         
 ---------------------------------------------------------------------
 Center     Atomic      Atomic             Coordinates (Angstroms)
 Number     Number       Type             X           Y           Z
 ---------------------------------------------------------------------
      1          8           0        0.000000    0.000000    0.000000
      2          1           0        0.000000    0.000000    0.467806
      3          6           0        1.295861    0.000000   -0.396617
      4          8           0        2.207952    0.000000    0.386555
      5          6           0        1.416268   -0.000000   -1.893753
      6          1           0        2.463694   -0.000010   -2.175261
      7          1           0        0.917786   -0.877701   -2.304483
      8          1           0        0.917800    0.877711   -2.304478
 ---------------------------------------------------------------------
                    Distance matrix (angstroms):
                    1          2          3          4          5
     1  O    0.000000
     2  H    0.467806   0.000000
     3  C    1.355197   1.557717   0.000000
     4  O    2.241535   2.209447   1.202194   0.000000
     5  C    2.364765   2.753683   1.501970   2.413828   0.000000
     6  H    3.286570   3.613251   2.127770   2.574549   1.084596
     7  H    2.631222   3.049307   2.133835   3.110719   1.089744
     8  H    2.631227   3.049310   2.133832   3.110712   1.089744
                    6          7          8
     6  H    0.000000
     7  H    1.782378   0.000000
     8  H    1.782380   1.755412   0.000000
 Symmetry turned off by external request.
 Stoichiometry    C2H4O2
 Framework group  C1[X(C2H4O2)]
 Deg. of freedom    18
 Full point group                 C1      NOp   1
 Rotational constants (GHZ):          11.1097142           9.4764864           5.2800931
 Standard basis: 6-311++G(3df,3pd) (5D, 7F)
   228 basis functions,   316 primitive gaussians,   256 cartesian basis functions
    16 alpha electrons       16 beta electrons
       nuclear repulsion energy       126.5687032556 Hartrees.
 NAtoms=    8 NActive=    8 NUniq=    8 SFac= 1.00D+00 NAtFMM=   60 NAOKFM=F Big=F
 Integral buffers will be    131072 words long.
 Raffenetti 2 integral format.
 Two-electron integral symmetry is turned off.
 One-electron integrals computed using PRISM.
 NBasis=   228 RedAO= T EigKep=  2.90D-05  NBF=   228
 NBsUse=   228 1.00D-06 EigRej= -1.00D+00 NBFU=   228
 ExpMin= 3.60D-02 ExpMax= 8.59D+03 ExpMxC= 1.30D+03 IAcc=3 IRadAn=         5 AccDes= 0.00D+00
 Harris functional with IExCor=  402 and IRadAn=       5 diagonalized for initial guess.
 HarFok:  IExCor=  402 AccDes= 0.00D+00 IRadAn=         5 IDoV= 1 UseB2=F ITyADJ=14
 ICtDFT=  3500011 ScaDFX=  1.000000  1.000000  1.000000  1.000000
 FoFCou: FMM=F IPFlag=           0 FMFlag=      100000 FMFlg1=           0
         NFxFlg=           0 DoJE=T BraDBF=F KetDBF=T FulRan=T
         wScrn=  0.000000 ICntrl=       500 IOpCl=  0 I1Cent=   200000004 NGrid=           0
         NMat0=    1 NMatS0=      1 NMatT0=    0 NMatD0=    1 NMtDS0=    0 NMtDT0=    0
 Symmetry not used in FoFCou.
 Keep R1 ints in memory in canonical form, NReq=349262426.
 Requested convergence on RMS density matrix=1.00D-08 within 128 cycles.
 Requested convergence on MAX density matrix=1.00D-06.
 Requested convergence on             energy=1.00D-06.
 No special actions if energy rises.
 SCF Done:  E(RB3LYP) =  -228.191254256     A.U. after   11 cycles
            NFock= 11  Conv=0.95D-08     -V/T= 1.9884

 **********************************************************************

            Population analysis using the SCF density.

 **********************************************************************

 Alpha  occ. eigenvalues --  -19.15845 -19.13346 -10.32577 -10.19350  -1.27987
 Alpha  occ. eigenvalues --   -1.06897  -0.80405  -0.70071  -0.51768  -0.50351
 Alpha  occ. eigenvalues --   -0.49372  -0.42985  -0.42797  -0.41554  -0.35592
 Alpha  occ. eigenvalues --   -0.30272
 Alpha virt. eigenvalues --   -0.01907  -0.01198   0.01723   0.03042   0.03371
 Alpha virt. eigenvalues --    0.05596   0.07187   0.08201   0.08398   0.09058
 Alpha virt. eigenvalues --    0.10611   0.12339   0.12552   0.16060   0.16702
 Alpha virt. eigenvalues --    0.17372   0.20223   0.20416   0.22472   0.23819
 Alpha virt. eigenvalues --    0.26039   0.26910   0.27623   0.28599   0.31000
 Alpha virt. eigenvalues --    0.31168   0.31514   0.32076   0.32515   0.36987
 Alpha virt. eigenvalues --    0.41370   0.41834   0.44665   0.49174   0.49361
 Alpha virt. eigenvalues --    0.52015   0.53373   0.53672   0.53978   0.55593
 Alpha virt. eigenvalues --    0.56615   0.60325   0.61149   0.63685   0.66779
 Alpha virt. eigenvalues --    0.69595   0.70705   0.71545   0.73727   0.74578
 Alpha virt. eigenvalues --    0.75241   0.78788   0.80882   0.83186   0.83347
 Alpha virt. eigenvalues --    0.88805   0.89130   0.92390   0.94488   0.94874
 Alpha virt. eigenvalues --    0.99274   1.03912   1.04330   1.06290   1.07964
 Alpha virt. eigenvalues --    1.13780   1.17833   1.18564   1.20829   1.25951
 Alpha virt. eigenvalues --    1.28363   1.29718   1.36855   1.40316   1.46060
 Alpha virt. eigenvalues --    1.49118   1.49677   1.59991   1.62442   1.65182
 Alpha virt. eigenvalues --    1.70667   1.74215   1.75278   1.76694   1.77228
 Alpha virt. eigenvalues --    1.87535   1.92122   1.92326   2.03501   2.04003
 Alpha virt. eigenvalues --    2.08443   2.18250   2.24858   2.29790   2.29953
 Alpha virt. eigenvalues --    2.31559   2.35735   2.45561   2.47752   2.53664
 Alpha virt. eigenvalues --    2.57434   2.62820   2.69476   2.73378   2.74837
 Alpha virt. eigenvalues --    2.79268   2.83613   2.86881   2.91070   2.95403
 Alpha virt. eigenvalues --    2.95474   3.01297   3.09257   3.12703   3.15162
 Alpha virt. eigenvalues --    3.23545   3.25605   3.27042   3.29538   3.30078
 Alpha virt. eigenvalues --    3.37187   3.46891   3.50960   3.55971   3.59278
 Alpha virt. eigenvalues --    3.64421   3.67451   3.70602   3.75088   3.80995
 Alpha virt. eigenvalues --    3.88975   3.97474   4.00013   4.02164   4.09830
 Alpha virt. eigenvalues --    4.12787   4.19574   4.21283   4.30499   4.36255
 Alpha virt. eigenvalues --    4.39640   4.50505   4.63812   4.73916   4.75944
 Alpha virt. eigenvalues --    4.78358   4.85043   4.87337   4.89831   4.91219
 Alpha virt. eigenvalues --    4.93878   5.06396   5.08281   5.14914   5.23648
 Alpha virt. eigenvalues --    5.26340   5.26388   5.34707   5.40052   5.43257
 Alpha virt. eigenvalues --    5.49929   5.54697   5.60986   5.69331   5.78315
 Alpha virt. eigenvalues --    5.80586   5.99487   6.02965   6.13400   6.22579
 Alpha virt. eigenvalues --    6.23416   6.38082   6.42985   6.91483   7.09829
 Alpha virt. eigenvalues --    7.15450   7.30198   7.47815   7.62304   7.66800
 Alpha virt. eigenvalues --    7.84081   7.87789   7.93945   8.20282   8.29523
 Alpha virt. eigenvalues --    8.43755   8.44438   8.46227   8.64208   8.66337
 Alpha virt. eigenvalues --    8.70727   9.41571   9.74378   9.77364   9.81990
 Alpha virt. eigenvalues --   11.39580  11.52754  13.80751  14.36442  14.40006
 Alpha virt. eigenvalues --   14.58090  14.67531  14.69592  14.92275  15.13464
 Alpha virt. eigenvalues --   15.14093  15.51573  17.86643  25.10792  26.18135
 Alpha virt. eigenvalues --   50.45566  52.07571
          Condensed to atoms (all electrons):
               1          2          3          4          5          6
     1  O   15.072026  -7.014752  -0.641883  -0.136516   0.175422  -0.000222
     2  H   -7.014752   8.387766   0.698361  -0.005767  -0.360420   0.013525
     3  C   -0.641883   0.698361   5.136236   0.233989  -0.147770  -0.075273
     4  O   -0.136516  -0.005767   0.233989   8.705219  -0.108188  -0.000395
     5  C    0.175422  -0.360420  -0.147770  -0.108188   5.456307   0.424704
     6  H   -0.000222   0.013525  -0.075273  -0.000395   0.424704   0.680188
     7  H    0.018747  -0.018128  -0.080699   0.005215   0.405196  -0.040421
     8  H    0.018748  -0.018129  -0.080700   0.005214   0.405196  -0.040420
               7          8
     1  O    0.018747   0.018748
     2  H   -0.018128  -0.018129
     3  C   -0.080699  -0.080700
     4  O    0.005215   0.005214
     5  C    0.405196   0.405196
     6  H   -0.040421  -0.040420
     7  H    0.687885  -0.041391
     8  H   -0.041391   0.687884
 Mulliken charges:
               1
     1  O    0.508431
     2  H   -0.682457
     3  C    0.957739
     4  O   -0.698772
     5  C   -0.250448
     6  H    0.038312
     7  H    0.063597
     8  H    0.063598
 Sum of Mulliken charges =  -0.00000
 Mulliken charges with hydrogens summed into heavy atoms:
               1
     1  O   -0.174026
     3  C    0.957739
     4  O   -0.698772
     5  C   -0.084941
 Electronic spatial extent (au):  <R**2>=            445.1352
 Charge=             -0.0000 electrons
 Dipole moment (field-independent basis, Debye):
    X=             -1.0553    Y=              0.0000    Z=             -1.7211  Tot=              2.0188
 Quadrupole moment (field-independent basis, Debye-Ang):
   XX=            -29.2747   YY=            -22.6559   ZZ=            -20.1926
   XY=             -0.0000   XZ=             -4.7498   YZ=              0.0000
 Traceless Quadrupole moment (field-independent basis, Debye-Ang):
   XX=             -5.2337   YY=              1.3852   ZZ=              3.8485
   XY=             -0.0000   XZ=             -4.7498   YZ=              0.0000
 Octapole moment (field-independent basis, Debye-Ang**2):
  XXX=           -103.2507  YYY=              0.0000  ZZZ=             37.7913  XYY=            -28.4976
  XXY=             -0.0000  XXZ=              5.6949  XZZ=            -26.4276  YZZ=             -0.0000
  YYZ=             13.0802  XYZ=              0.0000
 Hexadecapole moment (field-independent basis, Debye-Ang**3):
 XXXX=           -370.8806 YYYY=            -27.4834 ZZZZ=           -203.0742 XXXY=             -0.0001
 XXXZ=             35.0381 YYYX=              0.0000 YYYZ=             -0.0001 ZZZX=             47.7698
 ZZZY=              0.0000 XXYY=            -60.3898 XXZZ=            -84.8294 YYZZ=            -36.7022
 XXYZ=              0.0001 YYXZ=             18.2385 ZZXY=             -0.0000
 N-N= 1.265687032556D+02 E-N=-7.907635749241D+02  KE= 2.308752187737D+02
 Variable Step   Value    
 -------- ---- -----------
     1       1    0.902922
 ---------------------------------------------------------------------------------------------------
                            Z-MATRIX (ANGSTROMS AND DEGREES)
   CD    Cent   Atom    N1       Length/X        N2       Alpha/Y        N3        Beta/Z          J
 ---------------------------------------------------------------------------------------------------
      1      1  O 
      2      2  H        1   0.477806(     1)
      3      3  C        1   1.355197(     2)      2  107.017(     8)
      4      4  O        3   1.202194(     3)      1  122.331(     9)      2    0.000(    14)      0
      5      5  C        3   1.501970(     4)      1  111.616(    10)      4  180.000(    15)      0
      6      6  H        5   1.084596(     5)      3  109.642(    11)      1 -179.999(    16)      0
      7      7  H        5   1.089744(     6)      3  109.817(    12)      1  -58.884(    17)      0
      8      8  H        5   1.089744(     7)      3  109.817(    13)      1   58.885(    18)      0
 ---------------------------------------------------------------------------------------------------
                         Z-Matrix orientation:                         
 ---------------------------------------------------------------------
 Center     Atomic      Atomic             Coordinates (Angstroms)
 Number     Number       Type             X           Y           Z
 ---------------------------------------------------------------------
      1          8           0        0.000000    0.000000    0.000000
      2          1           0        0.000000    0.000000    0.477806
      3          6           0        1.295861    0.000000   -0.396617
      4          8           0        2.207952    0.000000    0.386555
      5          6           0        1.416268   -0.000000   -1.893753
      6          1           0        2.463694   -0.000010   -2.175261
      7          1           0        0.917786   -0.877701   -2.304483
      8          1           0        0.917800    0.877711   -2.304478
 ---------------------------------------------------------------------
                    Distance matrix (angstroms):
                    1          2          3          4          5
     1  O    0.000000
     2  H    0.477806   0.000000
     3  C    1.355197   1.563288   0.000000
     4  O    2.241535   2.209837   1.202194   0.000000
     5  C    2.364765   2.762264   1.501970   2.413828   0.000000
     6  H    3.286570   3.620573   2.127770   2.574549   1.084596
     7  H    2.631222   3.058401   2.133835   3.110719   1.089744
     8  H    2.631227   3.058404   2.133832   3.110712   1.089744
                    6          7          8
     6  H    0.000000
     7  H    1.782378   0.000000
     8  H    1.782380   1.755412   0.000000
 Symmetry turned off by external request.
 Stoichiometry    C2H4O2
 Framework group  C1[X(C2H4O2)]
 Deg. of freedom    18
 Full point group                 C1      NOp   1
 Rotational constants (GHZ):          11.1121989           9.4681136           5.2780534
 Standard basis: 6-311++G(3df,3pd) (5D, 7F)
   228 basis functions,   316 primitive gaussians,   256 cartesian basis functions
    16 alpha electrons       16 beta electrons
       nuclear repulsion energy       126.3667928643 Hartrees.
 NAtoms=    8 NActive=    8 NUniq=    8 SFac= 1.00D+00 NAtFMM=   60 NAOKFM=F Big=F
 Integral buffers will be    131072 words long.
 Raffenetti 2 integral format.
 Two-electron integral symmetry is turned off.
 One-electron integrals computed using PRISM.
 NBasis=   228 RedAO= T EigKep=  2.96D-05  NBF=   228
 NBsUse=   228 1.00D-06 EigRej= -1.00D+00 NBFU=   228
 Initial guess from the checkpoint file:  "trans_acetic_acid_new_freq.chk"
 B after Tr=     0.000224   -0.000000    0.001096
         Rot=    1.000000    0.000000   -0.000112   -0.000000 Ang=  -0.01 deg.
 ExpMin= 3.60D-02 ExpMax= 8.59D+03 ExpMxC= 1.30D+03 IAcc=3 IRadAn=         5 AccDes= 0.00D+00
 Harris functional with IExCor=  402 and IRadAn=       5 diagonalized for initial guess.
 HarFok:  IExCor=  402 AccDes= 0.00D+00 IRadAn=         5 IDoV= 1 UseB2=F ITyADJ=14
 ICtDFT=  3500011 ScaDFX=  1.000000  1.000000  1.000000  1.000000
 FoFCou: FMM=F IPFlag=           0 FMFlag=      100000 FMFlg1=           0
         NFxFlg=           0 DoJE=T BraDBF=F KetDBF=T FulRan=T
         wScrn=  0.000000 ICntrl=       500 IOpCl=  0 I1Cent=   200000004 NGrid=           0
         NMat0=    1 NMatS0=      1 NMatT0=    0 NMatD0=    1 NMtDS0=    0 NMtDT0=    0
 Symmetry not used in FoFCou.
 Keep R1 ints in memory in canonical form, NReq=349262426.
 Requested convergence on RMS density matrix=1.00D-08 within 128 cycles.
 Requested convergence on MAX density matrix=1.00D-06.
 Requested convergence on             energy=1.00D-06.
 No special actions if energy rises.
 SCF Done:  E(RB3LYP) =  -228.266198806     A.U. after    9 cycles
            NFock=  9  Conv=0.51D-08     -V/T= 1.9892

 **********************************************************************

            Population analysis using the SCF density.

 **********************************************************************

 Alpha  occ. eigenvalues --  -19.15606 -19.13321 -10.32548 -10.19337  -1.27568
 Alpha  occ. eigenvalues --   -1.06853  -0.80318  -0.69965  -0.51739  -0.50328
 Alpha  occ. eigenvalues --   -0.49347  -0.42952  -0.42769  -0.41529  -0.35555
 Alpha  occ. eigenvalues --   -0.30249
 Alpha virt. eigenvalues --   -0.01887  -0.01198   0.01718   0.03047   0.03375
 Alpha virt. eigenvalues --    0.05591   0.07192   0.08200   0.08406   0.09064
 Alpha virt. eigenvalues --    0.10608   0.12342   0.12544   0.16069   0.16710
 Alpha virt. eigenvalues --    0.17460   0.20202   0.20427   0.22501   0.23818
 Alpha virt. eigenvalues --    0.26043   0.26915   0.27629   0.28596   0.31014
 Alpha virt. eigenvalues --    0.31175   0.31385   0.32094   0.32496   0.36809
 Alpha virt. eigenvalues --    0.41322   0.41885   0.44644   0.49141   0.49390
 Alpha virt. eigenvalues --    0.52004   0.53381   0.53660   0.53994   0.55599
 Alpha virt. eigenvalues --    0.56592   0.60373   0.61116   0.63642   0.66820
 Alpha virt. eigenvalues --    0.69478   0.70613   0.71558   0.73672   0.74573
 Alpha virt. eigenvalues --    0.75230   0.78797   0.80857   0.83180   0.83335
 Alpha virt. eigenvalues --    0.88865   0.89137   0.92373   0.94481   0.94863
 Alpha virt. eigenvalues --    0.99327   1.03978   1.04301   1.06273   1.07947
 Alpha virt. eigenvalues --    1.13790   1.17943   1.18432   1.20551   1.25854
 Alpha virt. eigenvalues --    1.28758   1.29600   1.36493   1.40289   1.46000
 Alpha virt. eigenvalues --    1.49126   1.49399   1.59884   1.62427   1.65185
 Alpha virt. eigenvalues --    1.69888   1.74214   1.75183   1.76621   1.77233
 Alpha virt. eigenvalues --    1.87467   1.91985   1.92327   2.03752   2.04008
 Alpha virt. eigenvalues --    2.08447   2.17938   2.24836   2.29390   2.29452
 Alpha virt. eigenvalues --    2.31526   2.35684   2.45527   2.47781   2.53624
 Alpha virt. eigenvalues --    2.57450   2.62550   2.69498   2.73256   2.74861
 Alpha virt. eigenvalues --    2.79509   2.83473   2.86888   2.91102   2.95347
 Alpha virt. eigenvalues --    2.95401   3.01103   3.09159   3.12697   3.15075
 Alpha virt. eigenvalues --    3.23472   3.25518   3.27059   3.29506   3.29897
 Alpha virt. eigenvalues --    3.37033   3.46833   3.50896   3.54548   3.59145
 Alpha virt. eigenvalues --    3.64298   3.67086   3.69578   3.75099   3.80325
 Alpha virt. eigenvalues --    3.88042   3.97356   3.99625   4.02115   4.09228
 Alpha virt. eigenvalues --    4.12431   4.19236   4.21189   4.29717   4.36245
 Alpha virt. eigenvalues --    4.39111   4.49128   4.63815   4.74104   4.75360
 Alpha virt. eigenvalues --    4.78385   4.84782   4.87348   4.89863   4.91212
 Alpha virt. eigenvalues --    4.93816   5.06423   5.08276   5.14887   5.23524
 Alpha virt. eigenvalues --    5.26207   5.26319   5.34814   5.39400   5.42709
 Alpha virt. eigenvalues --    5.49451   5.54552   5.60917   5.67201   5.77808
 Alpha virt. eigenvalues --    5.79884   6.00088   6.02732   6.12198   6.22435
 Alpha virt. eigenvalues --    6.22938   6.37805   6.42319   6.91510   7.09527
 Alpha virt. eigenvalues --    7.15466   7.30234   7.47754   7.62323   7.66764
 Alpha virt. eigenvalues --    7.84144   7.87812   7.93945   8.20221   8.29535
 Alpha virt. eigenvalues --    8.43775   8.44439   8.46274   8.64222   8.66397
 Alpha virt. eigenvalues --    8.70734   9.41192   9.70609   9.77383   9.81858
 Alpha virt. eigenvalues --   11.28566  11.41303  13.75112  14.36458  14.39864
 Alpha virt. eigenvalues --   14.57378  14.67319  14.69405  14.92077  15.13993
 Alpha virt. eigenvalues --   15.17299  15.54330  17.61514  25.10791  26.18144
 Alpha virt. eigenvalues --   50.45531  52.02485
          Condensed to atoms (all electrons):
               1          2          3          4          5          6
     1  O   14.640490  -6.586423  -0.591282  -0.131906   0.172028   0.000513
     2  H   -6.586423   7.959749   0.653119  -0.010243  -0.357478   0.012998
     3  C   -0.591282   0.653119   5.131967   0.233377  -0.152805  -0.074552
     4  O   -0.131906  -0.010243   0.233377   8.705561  -0.107900  -0.000345
     5  C    0.172028  -0.357478  -0.152805  -0.107900   5.464096   0.423267
     6  H    0.000513   0.012998  -0.074552  -0.000345   0.423267   0.680378
     7  H    0.016696  -0.016705  -0.080293   0.005235   0.405603  -0.040251
     8  H    0.016697  -0.016705  -0.080293   0.005235   0.405603  -0.040251
               7          8
     1  O    0.016696   0.016697
     2  H   -0.016705  -0.016705
     3  C   -0.080293  -0.080293
     4  O    0.005235   0.005235
     5  C    0.405603   0.405603
     6  H   -0.040251  -0.040251
     7  H    0.687535  -0.041591
     8  H   -0.041591   0.687534
 Mulliken charges:
               1
     1  O    0.463187
     2  H   -0.638312
     3  C    0.960763
     4  O   -0.699014
     5  C   -0.252412
     6  H    0.038245
     7  H    0.063771
     8  H    0.063772
 Sum of Mulliken charges =  -0.00000
 Mulliken charges with hydrogens summed into heavy atoms:
               1
     1  O   -0.175125
     3  C    0.960763
     4  O   -0.699014
     5  C   -0.086624
 Electronic spatial extent (au):  <R**2>=            445.2099
 Charge=             -0.0000 electrons
 Dipole moment (field-independent basis, Debye):
    X=             -1.0644    Y=              0.0000    Z=             -1.7095  Tot=              2.0138
 Quadrupole moment (field-independent basis, Debye-Ang):
   XX=            -29.3045   YY=            -22.6728   ZZ=            -20.2007
   XY=             -0.0000   XZ=             -4.7508   YZ=              0.0000
 Traceless Quadrupole moment (field-independent basis, Debye-Ang):
   XX=             -5.2452   YY=              1.3865   ZZ=              3.8586
   XY=             -0.0000   XZ=             -4.7508   YZ=              0.0000
 Octapole moment (field-independent basis, Debye-Ang**2):
  XXX=           -103.2976  YYY=              0.0000  ZZZ=             37.7994  XYY=            -28.5023
  XXY=             -0.0000  XXZ=              5.6883  XZZ=            -26.4428  YZZ=             -0.0000
  YYZ=             13.0743  XYZ=              0.0000
 Hexadecapole moment (field-independent basis, Debye-Ang**3):
 XXXX=           -371.0284 YYYY=            -27.5066 ZZZZ=           -203.1713 XXXY=             -0.0001
 XXXZ=             35.0375 YYYX=              0.0000 YYYZ=             -0.0001 ZZZX=             47.7905
 ZZZY=              0.0000 XXYY=            -60.4060 XXZZ=            -84.8698 YYZZ=            -36.7205
 XXYZ=              0.0001 YYXZ=             18.2396 ZZXY=             -0.0000
 N-N= 1.263667928643D+02 E-N=-7.904274515497D+02  KE= 2.307618086504D+02
 Variable Step   Value    
 -------- ---- -----------
     1       2    0.921819
 ---------------------------------------------------------------------------------------------------
                            Z-MATRIX (ANGSTROMS AND DEGREES)
   CD    Cent   Atom    N1       Length/X        N2       Alpha/Y        N3        Beta/Z          J
 ---------------------------------------------------------------------------------------------------
      1      1  O 
      2      2  H        1   0.487806(     1)
      3      3  C        1   1.355197(     2)      2  107.017(     8)
      4      4  O        3   1.202194(     3)      1  122.331(     9)      2    0.000(    14)      0
      5      5  C        3   1.501970(     4)      1  111.616(    10)      4  180.000(    15)      0
      6      6  H        5   1.084596(     5)      3  109.642(    11)      1 -179.999(    16)      0
      7      7  H        5   1.089744(     6)      3  109.817(    12)      1  -58.884(    17)      0
      8      8  H        5   1.089744(     7)      3  109.817(    13)      1   58.885(    18)      0
 ---------------------------------------------------------------------------------------------------
                         Z-Matrix orientation:                         
 ---------------------------------------------------------------------
 Center     Atomic      Atomic             Coordinates (Angstroms)
 Number     Number       Type             X           Y           Z
 ---------------------------------------------------------------------
      1          8           0        0.000000    0.000000    0.000000
      2          1           0        0.000000    0.000000    0.487806
      3          6           0        1.295861    0.000000   -0.396617
      4          8           0        2.207952    0.000000    0.386555
      5          6           0        1.416268   -0.000000   -1.893753
      6          1           0        2.463694   -0.000010   -2.175261
      7          1           0        0.917786   -0.877701   -2.304483
      8          1           0        0.917800    0.877711   -2.304478
 ---------------------------------------------------------------------
                    Distance matrix (angstroms):
                    1          2          3          4          5
     1  O    0.000000
     2  H    0.487806   0.000000
     3  C    1.355197   1.568903   0.000000
     4  O    2.241535   2.210273   1.202194   0.000000
     5  C    2.364765   2.770854   1.501970   2.413828   0.000000
     6  H    3.286570   3.627907   2.127770   2.574549   1.084596
     7  H    2.631222   3.067501   2.133835   3.110719   1.089744
     8  H    2.631227   3.067504   2.133832   3.110712   1.089744
                    6          7          8
     6  H    0.000000
     7  H    1.782378   0.000000
     8  H    1.782380   1.755412   0.000000
 Symmetry turned off by external request.
 Stoichiometry    C2H4O2
 Framework group  C1[X(C2H4O2)]
 Deg. of freedom    18
 Full point group                 C1      NOp   1
 Rotational constants (GHZ):          11.1146818           9.4596888           5.2759938
 Standard basis: 6-311++G(3df,3pd) (5D, 7F)
   228 basis functions,   316 primitive gaussians,   256 cartesian basis functions
    16 alpha electrons       16 beta electrons
       nuclear repulsion energy       126.1726280508 Hartrees.
 NAtoms=    8 NActive=    8 NUniq=    8 SFac= 1.00D+00 NAtFMM=   60 NAOKFM=F Big=F
 Integral buffers will be    131072 words long.
 Raffenetti 2 integral format.
 Two-electron integral symmetry is turned off.
 One-electron integrals computed using PRISM.
 NBasis=   228 RedAO= T EigKep=  3.03D-05  NBF=   228
 NBsUse=   228 1.00D-06 EigRej= -1.00D+00 NBFU=   228
 Initial guess from the checkpoint file:  "trans_acetic_acid_new_freq.chk"
 B after Tr=     0.000224   -0.000000    0.001095
         Rot=    1.000000    0.000000   -0.000112   -0.000000 Ang=  -0.01 deg.
 ExpMin= 3.60D-02 ExpMax= 8.59D+03 ExpMxC= 1.30D+03 IAcc=3 IRadAn=         5 AccDes= 0.00D+00
 Harris functional with IExCor=  402 and IRadAn=       5 diagonalized for initial guess.
 HarFok:  IExCor=  402 AccDes= 0.00D+00 IRadAn=         5 IDoV= 1 UseB2=F ITyADJ=14
 ICtDFT=  3500011 ScaDFX=  1.000000  1.000000  1.000000  1.000000
 FoFCou: FMM=F IPFlag=           0 FMFlag=      100000 FMFlg1=           0
         NFxFlg=           0 DoJE=T BraDBF=F KetDBF=T FulRan=T
         wScrn=  0.000000 ICntrl=       500 IOpCl=  0 I1Cent=   200000004 NGrid=           0
         NMat0=    1 NMatS0=      1 NMatT0=    0 NMatD0=    1 NMtDS0=    0 NMtDT0=    0
 Symmetry not used in FoFCou.
 Keep R1 ints in memory in canonical form, NReq=349262426.
 Requested convergence on RMS density matrix=1.00D-08 within 128 cycles.
 Requested convergence on MAX density matrix=1.00D-06.
 Requested convergence on             energy=1.00D-06.
 No special actions if energy rises.
 SCF Done:  E(RB3LYP) =  -228.335739567     A.U. after    9 cycles
            NFock=  9  Conv=0.50D-08     -V/T= 1.9900

 **********************************************************************

            Population analysis using the SCF density.

 **********************************************************************

 Alpha  occ. eigenvalues --  -19.15413 -19.13296 -10.32521 -10.19324  -1.27135
 Alpha  occ. eigenvalues --   -1.06807  -0.80231  -0.69857  -0.51711  -0.50306
 Alpha  occ. eigenvalues --   -0.49321  -0.42923  -0.42741  -0.41504  -0.35518
 Alpha  occ. eigenvalues --   -0.30226
 Alpha virt. eigenvalues --   -0.01868  -0.01197   0.01713   0.03053   0.03380
 Alpha virt. eigenvalues --    0.05586   0.07196   0.08199   0.08414   0.09071
 Alpha virt. eigenvalues --    0.10604   0.12346   0.12537   0.16077   0.16718
 Alpha virt. eigenvalues --    0.17548   0.20181   0.20439   0.22529   0.23816
 Alpha virt. eigenvalues --    0.26046   0.26921   0.27635   0.28591   0.31026
 Alpha virt. eigenvalues --    0.31182   0.31251   0.32114   0.32478   0.36642
 Alpha virt. eigenvalues --    0.41278   0.41936   0.44622   0.49108   0.49416
 Alpha virt. eigenvalues --    0.51994   0.53389   0.53647   0.54010   0.55602
 Alpha virt. eigenvalues --    0.56569   0.60413   0.61081   0.63600   0.66859
 Alpha virt. eigenvalues --    0.69304   0.70532   0.71594   0.73640   0.74567
 Alpha virt. eigenvalues --    0.75220   0.78805   0.80836   0.83179   0.83323
 Alpha virt. eigenvalues --    0.88922   0.89144   0.92357   0.94475   0.94856
 Alpha virt. eigenvalues --    0.99379   1.04045   1.04274   1.06256   1.07917
 Alpha virt. eigenvalues --    1.13799   1.18042   1.18297   1.20269   1.25765
 Alpha virt. eigenvalues --    1.28963   1.29699   1.36104   1.40263   1.45915
 Alpha virt. eigenvalues --    1.49133   1.49158   1.59752   1.62413   1.65187
 Alpha virt. eigenvalues --    1.69091   1.74213   1.75111   1.76571   1.77238
 Alpha virt. eigenvalues --    1.87411   1.91870   1.92329   2.04010   2.04011
 Alpha virt. eigenvalues --    2.08456   2.17641   2.24823   2.28810   2.29114
 Alpha virt. eigenvalues --    2.31532   2.35644   2.45506   2.47809   2.53560
 Alpha virt. eigenvalues --    2.57465   2.62254   2.69516   2.73124   2.74885
 Alpha virt. eigenvalues --    2.79742   2.83327   2.86894   2.91136   2.95198
 Alpha virt. eigenvalues --    2.95397   3.00933   3.09059   3.12684   3.14985
 Alpha virt. eigenvalues --    3.23397   3.25362   3.27077   3.29463   3.29767
 Alpha virt. eigenvalues --    3.36899   3.46773   3.50743   3.53210   3.59063
 Alpha virt. eigenvalues --    3.64132   3.66670   3.68582   3.75108   3.79619
 Alpha virt. eigenvalues --    3.87139   3.97252   3.99216   4.02068   4.08702
 Alpha virt. eigenvalues --    4.12066   4.18948   4.21079   4.28905   4.36234
 Alpha virt. eigenvalues --    4.38589   4.47841   4.63820   4.74259   4.74771
 Alpha virt. eigenvalues --    4.78380   4.84555   4.87357   4.89898   4.91211
 Alpha virt. eigenvalues --    4.93754   5.06452   5.08266   5.14852   5.23378
 Alpha virt. eigenvalues --    5.26076   5.26272   5.34909   5.38765   5.42101
 Alpha virt. eigenvalues --    5.48961   5.54414   5.60842   5.65154   5.77358
 Alpha virt. eigenvalues --    5.79218   6.00855   6.02503   6.11017   6.21451
 Alpha virt. eigenvalues --    6.23386   6.37539   6.41723   6.91533   7.09234
 Alpha virt. eigenvalues --    7.15482   7.30270   7.47695   7.62341   7.66727
 Alpha virt. eigenvalues --    7.84208   7.87833   7.93942   8.20165   8.29547
 Alpha virt. eigenvalues --    8.43793   8.44438   8.46305   8.64236   8.66449
 Alpha virt. eigenvalues --    8.70737   9.40633   9.66373   9.77400   9.81773
 Alpha virt. eigenvalues --   11.17086  11.29475  13.68789  14.36474  14.39743
 Alpha virt. eigenvalues --   14.56682  14.67136  14.69253  14.91868  15.13881
 Alpha virt. eigenvalues --   15.21497  15.57305  17.37154  25.10787  26.18151
 Alpha virt. eigenvalues --   50.45496  51.98639
          Condensed to atoms (all electrons):
               1          2          3          4          5          6
     1  O   14.205266  -6.150128  -0.540734  -0.127752   0.166193   0.001335
     2  H   -6.150128   7.519653   0.607962  -0.014336  -0.352417   0.012389
     3  C   -0.540734   0.607962   5.126672   0.232782  -0.156595  -0.073939
     4  O   -0.127752  -0.014336   0.232782   8.705937  -0.107576  -0.000297
     5  C    0.166193  -0.352417  -0.156595  -0.107576   5.470812   0.421920
     6  H    0.001335   0.012389  -0.073939  -0.000297   0.421920   0.680555
     7  H    0.014768  -0.015343  -0.079905   0.005249   0.405976  -0.040070
     8  H    0.014769  -0.015343  -0.079905   0.005249   0.405976  -0.040069
               7          8
     1  O    0.014768   0.014769
     2  H   -0.015343  -0.015343
     3  C   -0.079905  -0.079905
     4  O    0.005249   0.005249
     5  C    0.405976   0.405976
     6  H   -0.040070  -0.040069
     7  H    0.687182  -0.041789
     8  H   -0.041789   0.687181
 Mulliken charges:
               1
     1  O    0.416282
     2  H   -0.592436
     3  C    0.963662
     4  O   -0.699256
     5  C   -0.254289
     6  H    0.038175
     7  H    0.063930
     8  H    0.063931
 Sum of Mulliken charges =  -0.00000
 Mulliken charges with hydrogens summed into heavy atoms:
               1
     1  O   -0.176154
     3  C    0.963662
     4  O   -0.699256
     5  C   -0.088252
 Electronic spatial extent (au):  <R**2>=            445.2841
 Charge=             -0.0000 electrons
 Dipole moment (field-independent basis, Debye):
    X=             -1.0733    Y=              0.0000    Z=             -1.6981  Tot=              2.0089
 Quadrupole moment (field-independent basis, Debye-Ang):
   XX=            -29.3339   YY=            -22.6896   ZZ=            -20.2081
   XY=             -0.0000   XZ=             -4.7519   YZ=              0.0000
 Traceless Quadrupole moment (field-independent basis, Debye-Ang):
   XX=             -5.2567   YY=              1.3876   ZZ=              3.8691
   XY=             -0.0000   XZ=             -4.7519   YZ=              0.0000
 Octapole moment (field-independent basis, Debye-Ang**2):
  XXX=           -103.3439  YYY=              0.0000  ZZZ=             37.8071  XYY=            -28.5070
  XXY=             -0.0000  XXZ=              5.6812  XZZ=            -26.4575  YZZ=             -0.0000
  YYZ=             13.0683  XYZ=              0.0000
 Hexadecapole moment (field-independent basis, Debye-Ang**3):
 XXXX=           -371.1743 YYYY=            -27.5294 ZZZZ=           -203.2666 XXXY=             -0.0001
 XXXZ=             35.0360 YYYX=              0.0000 YYYZ=             -0.0001 ZZZX=             47.8101
 ZZZY=              0.0000 XXYY=            -60.4220 XXZZ=            -84.9093 YYZZ=            -36.7388
 XXYZ=              0.0001 YYXZ=             18.2405 ZZXY=             -0.0000
 N-N= 1.261726280508D+02 E-N=-7.900991065382D+02  KE= 2.306522570530D+02
 Variable Step   Value    
 -------- ---- -----------
     1       3    0.940716
 ---------------------------------------------------------------------------------------------------
                            Z-MATRIX (ANGSTROMS AND DEGREES)
   CD    Cent   Atom    N1       Length/X        N2       Alpha/Y        N3        Beta/Z          J
 ---------------------------------------------------------------------------------------------------
      1      1  O 
      2      2  H        1   0.497806(     1)
      3      3  C        1   1.355197(     2)      2  107.017(     8)
      4      4  O        3   1.202194(     3)      1  122.331(     9)      2    0.000(    14)      0
      5      5  C        3   1.501970(     4)      1  111.616(    10)      4  180.000(    15)      0
      6      6  H        5   1.084596(     5)      3  109.642(    11)      1 -179.999(    16)      0
      7      7  H        5   1.089744(     6)      3  109.817(    12)      1  -58.884(    17)      0
      8      8  H        5   1.089744(     7)      3  109.817(    13)      1   58.885(    18)      0
 ---------------------------------------------------------------------------------------------------
                         Z-Matrix orientation:                         
 ---------------------------------------------------------------------
 Center     Atomic      Atomic             Coordinates (Angstroms)
 Number     Number       Type             X           Y           Z
 ---------------------------------------------------------------------
      1          8           0        0.000000    0.000000    0.000000
      2          1           0        0.000000    0.000000    0.497806
      3          6           0        1.295861    0.000000   -0.396617
      4          8           0        2.207952    0.000000    0.386555
      5          6           0        1.416268   -0.000000   -1.893753
      6          1           0        2.463694   -0.000010   -2.175261
      7          1           0        0.917786   -0.877701   -2.304483
      8          1           0        0.917800    0.877711   -2.304478
 ---------------------------------------------------------------------
                    Distance matrix (angstroms):
                    1          2          3          4          5
     1  O    0.000000
     2  H    0.497806   0.000000
     3  C    1.355197   1.574562   0.000000
     4  O    2.241535   2.210753   1.202194   0.000000
     5  C    2.364765   2.779454   1.501970   2.413828   0.000000
     6  H    3.286570   3.635254   2.127770   2.574549   1.084596
     7  H    2.631222   3.076607   2.133835   3.110719   1.089744
     8  H    2.631227   3.076610   2.133832   3.110712   1.089744
                    6          7          8
     6  H    0.000000
     7  H    1.782378   0.000000
     8  H    1.782380   1.755412   0.000000
 Symmetry turned off by external request.
 Stoichiometry    C2H4O2
 Framework group  C1[X(C2H4O2)]
 Deg. of freedom    18
 Full point group                 C1      NOp   1
 Rotational constants (GHZ):          11.1171626           9.4512124           5.2739144
 Standard basis: 6-311++G(3df,3pd) (5D, 7F)
   228 basis functions,   316 primitive gaussians,   256 cartesian basis functions
    16 alpha electrons       16 beta electrons
       nuclear repulsion energy       125.9857420469 Hartrees.
 NAtoms=    8 NActive=    8 NUniq=    8 SFac= 1.00D+00 NAtFMM=   60 NAOKFM=F Big=F
 Integral buffers will be    131072 words long.
 Raffenetti 2 integral format.
 Two-electron integral symmetry is turned off.
 One-electron integrals computed using PRISM.
 NBasis=   228 RedAO= T EigKep=  3.09D-05  NBF=   228
 NBsUse=   228 1.00D-06 EigRej= -1.00D+00 NBFU=   228
 Initial guess from the checkpoint file:  "trans_acetic_acid_new_freq.chk"
 B after Tr=     0.000224   -0.000000    0.001095
         Rot=    1.000000    0.000000   -0.000112   -0.000000 Ang=  -0.01 deg.
 ExpMin= 3.60D-02 ExpMax= 8.59D+03 ExpMxC= 1.30D+03 IAcc=3 IRadAn=         5 AccDes= 0.00D+00
 Harris functional with IExCor=  402 and IRadAn=       5 diagonalized for initial guess.
 HarFok:  IExCor=  402 AccDes= 0.00D+00 IRadAn=         5 IDoV= 1 UseB2=F ITyADJ=14
 ICtDFT=  3500011 ScaDFX=  1.000000  1.000000  1.000000  1.000000
 FoFCou: FMM=F IPFlag=           0 FMFlag=      100000 FMFlg1=           0
         NFxFlg=           0 DoJE=T BraDBF=F KetDBF=T FulRan=T
         wScrn=  0.000000 ICntrl=       500 IOpCl=  0 I1Cent=   200000004 NGrid=           0
         NMat0=    1 NMatS0=      1 NMatT0=    0 NMatD0=    1 NMtDS0=    0 NMtDT0=    0
 Symmetry not used in FoFCou.
 Keep R1 ints in memory in canonical form, NReq=349262426.
 Requested convergence on RMS density matrix=1.00D-08 within 128 cycles.
 Requested convergence on MAX density matrix=1.00D-06.
 Requested convergence on             energy=1.00D-06.
 No special actions if energy rises.
 SCF Done:  E(RB3LYP) =  -228.400282122     A.U. after    9 cycles
            NFock=  9  Conv=0.48D-08     -V/T= 1.9907

 **********************************************************************

            Population analysis using the SCF density.

 **********************************************************************

 Alpha  occ. eigenvalues --  -19.15259 -19.13271 -10.32493 -10.19312  -1.26692
 Alpha  occ. eigenvalues --   -1.06760  -0.80144  -0.69746  -0.51683  -0.50284
 Alpha  occ. eigenvalues --   -0.49296  -0.42896  -0.42710  -0.41480  -0.35481
 Alpha  occ. eigenvalues --   -0.30203
 Alpha virt. eigenvalues --   -0.01848  -0.01196   0.01707   0.03059   0.03384
 Alpha virt. eigenvalues --    0.05580   0.07201   0.08198   0.08422   0.09078
 Alpha virt. eigenvalues --    0.10601   0.12349   0.12527   0.16085   0.16726
 Alpha virt. eigenvalues --    0.17635   0.20159   0.20449   0.22554   0.23814
 Alpha virt. eigenvalues --    0.26049   0.26925   0.27641   0.28585   0.31024
 Alpha virt. eigenvalues --    0.31128   0.31188   0.32133   0.32459   0.36487
 Alpha virt. eigenvalues --    0.41237   0.41987   0.44600   0.49075   0.49440
 Alpha virt. eigenvalues --    0.51984   0.53398   0.53634   0.54024   0.55603
 Alpha virt. eigenvalues --    0.56546   0.60443   0.61045   0.63559   0.66894
 Alpha virt. eigenvalues --    0.69078   0.70473   0.71645   0.73628   0.74562
 Alpha virt. eigenvalues --    0.75211   0.78814   0.80817   0.83183   0.83312
 Alpha virt. eigenvalues --    0.88976   0.89151   0.92340   0.94471   0.94851
 Alpha virt. eigenvalues --    0.99430   1.04110   1.04247   1.06239   1.07875
 Alpha virt. eigenvalues --    1.13807   1.18130   1.18160   1.19986   1.25683
 Alpha virt. eigenvalues --    1.28898   1.30088   1.35686   1.40238   1.45800
 Alpha virt. eigenvalues --    1.48964   1.49140   1.59592   1.62400   1.65188
 Alpha virt. eigenvalues --    1.68310   1.74210   1.75059   1.76537   1.77243
 Alpha virt. eigenvalues --    1.87364   1.91770   1.92330   2.04015   2.04270
 Alpha virt. eigenvalues --    2.08469   2.17362   2.24819   2.28211   2.28786
 Alpha virt. eigenvalues --    2.31563   2.35612   2.45495   2.47837   2.53463
 Alpha virt. eigenvalues --    2.57479   2.61932   2.69530   2.72983   2.74910
 Alpha virt. eigenvalues --    2.79965   2.83177   2.86898   2.91169   2.95026
 Alpha virt. eigenvalues --    2.95392   3.00789   3.08958   3.12665   3.14891
 Alpha virt. eigenvalues --    3.23322   3.25139   3.27094   3.29410   3.29694
 Alpha virt. eigenvalues --    3.36784   3.46711   3.50325   3.52170   3.59002
 Alpha virt. eigenvalues --    3.63916   3.66140   3.67682   3.75117   3.78887
 Alpha virt. eigenvalues --    3.86288   3.97159   3.98786   4.02022   4.08240
 Alpha virt. eigenvalues --    4.11696   4.18704   4.20946   4.28081   4.36224
 Alpha virt. eigenvalues --    4.38064   4.46661   4.63825   4.74182   4.74382
 Alpha virt. eigenvalues --    4.78338   4.84358   4.87364   4.89933   4.91214
 Alpha virt. eigenvalues --    4.93693   5.06482   5.08252   5.14810   5.23206
 Alpha virt. eigenvalues --    5.25946   5.26243   5.34988   5.38147   5.41432
 Alpha virt. eigenvalues --    5.48453   5.54284   5.60742   5.63256   5.76940
 Alpha virt. eigenvalues --    5.78589   6.01771   6.02243   6.09881   6.20476
 Alpha virt. eigenvalues --    6.23914   6.37279   6.41191   6.91548   7.08946
 Alpha virt. eigenvalues --    7.15499   7.30306   7.47640   7.62358   7.66687
 Alpha virt. eigenvalues --    7.84272   7.87852   7.93934   8.20113   8.29558
 Alpha virt. eigenvalues --    8.43811   8.44433   8.46319   8.64250   8.66494
 Alpha virt. eigenvalues --    8.70736   9.39762   9.61853   9.77418   9.81710
 Alpha virt. eigenvalues --   11.05274  11.17405  13.61715  14.36491  14.39639
 Alpha virt. eigenvalues --   14.56006  14.66967  14.69127  14.91641  15.13741
 Alpha virt. eigenvalues --   15.25820  15.60295  17.13865  25.10780  26.18156
 Alpha virt. eigenvalues --   50.45461  51.95702
          Condensed to atoms (all electrons):
               1          2          3          4          5          6
     1  O   13.772488  -5.711557  -0.490981  -0.124087   0.158187   0.002231
     2  H   -5.711557   7.072737   0.563556  -0.018015  -0.345436   0.011709
     3  C   -0.490981   0.563556   5.120455   0.232216  -0.159188  -0.073425
     4  O   -0.124087  -0.018015   0.232216   8.706347  -0.107227  -0.000248
     5  C    0.158187  -0.345436  -0.159188  -0.107227   5.476442   0.420662
     6  H    0.002231   0.011709  -0.073425  -0.000248   0.420662   0.680725
     7  H    0.012956  -0.014039  -0.079535   0.005257   0.406320  -0.039878
     8  H    0.012957  -0.014040  -0.079535   0.005256   0.406320  -0.039878
               7          8
     1  O    0.012956   0.012957
     2  H   -0.014039  -0.014040
     3  C   -0.079535  -0.079535
     4  O    0.005257   0.005256
     5  C    0.406320   0.406320
     6  H   -0.039878  -0.039878
     7  H    0.686829  -0.041985
     8  H   -0.041985   0.686828
 Mulliken charges:
               1
     1  O    0.367806
     2  H   -0.544916
     3  C    0.966437
     4  O   -0.699499
     5  C   -0.256081
     6  H    0.038103
     7  H    0.064075
     8  H    0.064075
 Sum of Mulliken charges =  -0.00000
 Mulliken charges with hydrogens summed into heavy atoms:
               1
     1  O   -0.177110
     3  C    0.966437
     4  O   -0.699499
     5  C   -0.089828
 Electronic spatial extent (au):  <R**2>=            445.3581
 Charge=              0.0000 electrons
 Dipole moment (field-independent basis, Debye):
    X=             -1.0821    Y=              0.0000    Z=             -1.6868  Tot=              2.0040
 Quadrupole moment (field-independent basis, Debye-Ang):
   XX=            -29.3628   YY=            -22.7061   ZZ=            -20.2148
   XY=             -0.0000   XZ=             -4.7531   YZ=              0.0000
 Traceless Quadrupole moment (field-independent basis, Debye-Ang):
   XX=             -5.2683   YY=              1.3885   ZZ=              3.8798
   XY=             -0.0000   XZ=             -4.7531   YZ=              0.0000
 Octapole moment (field-independent basis, Debye-Ang**2):
  XXX=           -103.3897  YYY=              0.0000  ZZZ=             37.8145  XYY=            -28.5117
  XXY=             -0.0000  XXZ=              5.6737  XZZ=            -26.4717  YZZ=             -0.0000
  YYZ=             13.0619  XYZ=              0.0000
 Hexadecapole moment (field-independent basis, Debye-Ang**3):
 XXXX=           -371.3184 YYYY=            -27.5516 ZZZZ=           -203.3602 XXXY=             -0.0001
 XXXZ=             35.0337 YYYX=              0.0000 YYYZ=             -0.0001 ZZZX=             47.8287
 ZZZY=              0.0000 XXYY=            -60.4377 XXZZ=            -84.9478 YYZZ=            -36.7569
 XXYZ=              0.0001 YYXZ=             18.2414 ZZXY=             -0.0000
 N-N= 1.259857420469D+02 E-N=-7.897784277989D+02  KE= 2.305465142032D+02
 Variable Step   Value    
 -------- ---- -----------
     1       4    0.959613
 ---------------------------------------------------------------------------------------------------
                            Z-MATRIX (ANGSTROMS AND DEGREES)
   CD    Cent   Atom    N1       Length/X        N2       Alpha/Y        N3        Beta/Z          J
 ---------------------------------------------------------------------------------------------------
      1      1  O 
      2      2  H        1   0.507806(     1)
      3      3  C        1   1.355197(     2)      2  107.017(     8)
      4      4  O        3   1.202194(     3)      1  122.331(     9)      2    0.000(    14)      0
      5      5  C        3   1.501970(     4)      1  111.616(    10)      4  180.000(    15)      0
      6      6  H        5   1.084596(     5)      3  109.642(    11)      1 -179.999(    16)      0
      7      7  H        5   1.089744(     6)      3  109.817(    12)      1  -58.884(    17)      0
      8      8  H        5   1.089744(     7)      3  109.817(    13)      1   58.885(    18)      0
 ---------------------------------------------------------------------------------------------------
                         Z-Matrix orientation:                         
 ---------------------------------------------------------------------
 Center     Atomic      Atomic             Coordinates (Angstroms)
 Number     Number       Type             X           Y           Z
 ---------------------------------------------------------------------
      1          8           0        0.000000    0.000000    0.000000
      2          1           0        0.000000    0.000000    0.507806
      3          6           0        1.295861    0.000000   -0.396617
      4          8           0        2.207952    0.000000    0.386555
      5          6           0        1.416268   -0.000000   -1.893753
      6          1           0        2.463694   -0.000010   -2.175261
      7          1           0        0.917786   -0.877701   -2.304483
      8          1           0        0.917800    0.877711   -2.304478
 ---------------------------------------------------------------------
                    Distance matrix (angstroms):
                    1          2          3          4          5
     1  O    0.000000
     2  H    0.507806   0.000000
     3  C    1.355197   1.580264   0.000000
     4  O    2.241535   2.211279   1.202194   0.000000
     5  C    2.364765   2.788063   1.501970   2.413828   0.000000
     6  H    3.286570   3.642613   2.127770   2.574549   1.084596
     7  H    2.631222   3.085718   2.133835   3.110719   1.089744
     8  H    2.631227   3.085721   2.133832   3.110712   1.089744
                    6          7          8
     6  H    0.000000
     7  H    1.782378   0.000000
     8  H    1.782380   1.755412   0.000000
 Symmetry turned off by external request.
 Stoichiometry    C2H4O2
 Framework group  C1[X(C2H4O2)]
 Deg. of freedom    18
 Full point group                 C1      NOp   1
 Rotational constants (GHZ):          11.1196411           9.4426849           5.2718152
 Standard basis: 6-311++G(3df,3pd) (5D, 7F)
   228 basis functions,   316 primitive gaussians,   256 cartesian basis functions
    16 alpha electrons       16 beta electrons
       nuclear repulsion energy       125.8057049235 Hartrees.
 NAtoms=    8 NActive=    8 NUniq=    8 SFac= 1.00D+00 NAtFMM=   60 NAOKFM=F Big=F
 Integral buffers will be    131072 words long.
 Raffenetti 2 integral format.
 Two-electron integral symmetry is turned off.
 One-electron integrals computed using PRISM.
 NBasis=   228 RedAO= T EigKep=  3.15D-05  NBF=   228
 NBsUse=   228 1.00D-06 EigRej= -1.00D+00 NBFU=   228
 Initial guess from the checkpoint file:  "trans_acetic_acid_new_freq.chk"
 B after Tr=     0.000223   -0.000000    0.001095
         Rot=    1.000000    0.000000   -0.000112   -0.000000 Ang=  -0.01 deg.
 ExpMin= 3.60D-02 ExpMax= 8.59D+03 ExpMxC= 1.30D+03 IAcc=3 IRadAn=         5 AccDes= 0.00D+00
 Harris functional with IExCor=  402 and IRadAn=       5 diagonalized for initial guess.
 HarFok:  IExCor=  402 AccDes= 0.00D+00 IRadAn=         5 IDoV= 1 UseB2=F ITyADJ=14
 ICtDFT=  3500011 ScaDFX=  1.000000  1.000000  1.000000  1.000000
 FoFCou: FMM=F IPFlag=           0 FMFlag=      100000 FMFlg1=           0
         NFxFlg=           0 DoJE=T BraDBF=F KetDBF=T FulRan=T
         wScrn=  0.000000 ICntrl=       500 IOpCl=  0 I1Cent=   200000004 NGrid=           0
         NMat0=    1 NMatS0=      1 NMatT0=    0 NMatD0=    1 NMtDS0=    0 NMtDT0=    0
 Symmetry not used in FoFCou.
 Keep R1 ints in memory in canonical form, NReq=349262426.
 Requested convergence on RMS density matrix=1.00D-08 within 128 cycles.
 Requested convergence on MAX density matrix=1.00D-06.
 Requested convergence on             energy=1.00D-06.
 No special actions if energy rises.
 SCF Done:  E(RB3LYP) =  -228.460198320     A.U. after    9 cycles
            NFock=  9  Conv=0.47D-08     -V/T= 1.9914

 **********************************************************************

            Population analysis using the SCF density.

 **********************************************************************

 Alpha  occ. eigenvalues --  -19.15140 -19.13246 -10.32466 -10.19300  -1.26241
 Alpha  occ. eigenvalues --   -1.06711  -0.80057  -0.69633  -0.51655  -0.50262
 Alpha  occ. eigenvalues --   -0.49271  -0.42871  -0.42678  -0.41456  -0.35444
 Alpha  occ. eigenvalues --   -0.30181
 Alpha virt. eigenvalues --   -0.01828  -0.01196   0.01700   0.03064   0.03388
 Alpha virt. eigenvalues --    0.05573   0.07205   0.08198   0.08431   0.09084
 Alpha virt. eigenvalues --    0.10597   0.12351   0.12517   0.16092   0.16734
 Alpha virt. eigenvalues --    0.17719   0.20137   0.20460   0.22578   0.23811
 Alpha virt. eigenvalues --    0.26052   0.26930   0.27646   0.28579   0.30938
 Alpha virt. eigenvalues --    0.31085   0.31194   0.32152   0.32440   0.36342
 Alpha virt. eigenvalues --    0.41200   0.42038   0.44578   0.49042   0.49462
 Alpha virt. eigenvalues --    0.51974   0.53406   0.53621   0.54037   0.55604
 Alpha virt. eigenvalues --    0.56523   0.60461   0.61010   0.63519   0.66928
 Alpha virt. eigenvalues --    0.68813   0.70434   0.71702   0.73634   0.74557
 Alpha virt. eigenvalues --    0.75202   0.78823   0.80801   0.83189   0.83302
 Alpha virt. eigenvalues --    0.89028   0.89158   0.92321   0.94467   0.94850
 Alpha virt. eigenvalues --    0.99481   1.04175   1.04221   1.06222   1.07820
 Alpha virt. eigenvalues --    1.13815   1.18020   1.18205   1.19704   1.25607
 Alpha virt. eigenvalues --    1.28741   1.30584   1.35241   1.40215   1.45652
 Alpha virt. eigenvalues --    1.48822   1.49146   1.59400   1.62386   1.65189
 Alpha virt. eigenvalues --    1.67570   1.74207   1.75024   1.76514   1.77247
 Alpha virt. eigenvalues --    1.87321   1.91684   1.92331   2.04017   2.04526
 Alpha virt. eigenvalues --    2.08488   2.17102   2.24822   2.27589   2.28471
 Alpha virt. eigenvalues --    2.31610   2.35587   2.45493   2.47864   2.53327
 Alpha virt. eigenvalues --    2.57492   2.61585   2.69539   2.72835   2.74936
 Alpha virt. eigenvalues --    2.80180   2.83026   2.86900   2.91203   2.94832
 Alpha virt. eigenvalues --    2.95386   3.00673   3.08857   3.12638   3.14794
 Alpha virt. eigenvalues --    3.23246   3.24857   3.27110   3.29348   3.29675
 Alpha virt. eigenvalues --    3.36687   3.46647   3.49427   3.51656   3.58951
 Alpha virt. eigenvalues --    3.63644   3.65362   3.67011   3.75123   3.78140
 Alpha virt. eigenvalues --    3.85497   3.97074   3.98335   4.01974   4.07831
 Alpha virt. eigenvalues --    4.11330   4.18497   4.20785   4.27265   4.36213
 Alpha virt. eigenvalues --    4.37528   4.45600   4.63830   4.73595   4.74475
 Alpha virt. eigenvalues --    4.78254   4.84186   4.87369   4.89967   4.91222
 Alpha virt. eigenvalues --    4.93632   5.06510   5.08234   5.14759   5.23006
 Alpha virt. eigenvalues --    5.25816   5.26226   5.35046   5.37544   5.40705
 Alpha virt. eigenvalues --    5.47921   5.54162   5.60496   5.61654   5.76544
 Alpha virt. eigenvalues --    5.77995   6.01907   6.02811   6.08823   6.19524
 Alpha virt. eigenvalues --    6.24509   6.37019   6.40717   6.91554   7.08664
 Alpha virt. eigenvalues --    7.15517   7.30342   7.47587   7.62374   7.66645
 Alpha virt. eigenvalues --    7.84335   7.87869   7.93922   8.20064   8.29569
 Alpha virt. eigenvalues --    8.43827   8.44426   8.46313   8.64263   8.66532
 Alpha virt. eigenvalues --    8.70730   9.38333   9.57345   9.77434   9.81659
 Alpha virt. eigenvalues --   10.93253  11.05216  13.53840  14.36507  14.39550
 Alpha virt. eigenvalues --   14.55351  14.66801  14.69022  14.91391  15.13564
 Alpha virt. eigenvalues --   15.30057  15.63108  16.91926  25.10770  26.18159
 Alpha virt. eigenvalues --   50.45426  51.93379
          Condensed to atoms (all electrons):
               1          2          3          4          5          6
     1  O   13.347500  -5.275812  -0.442573  -0.120931   0.148286   0.003183
     2  H   -5.275812   6.623849   0.520408  -0.021258  -0.336746   0.010972
     3  C   -0.442573   0.520408   5.113405   0.231692  -0.160652  -0.073004
     4  O   -0.120931  -0.021258   0.231692   8.706793  -0.106866  -0.000200
     5  C    0.148286  -0.336746  -0.160652  -0.106866   5.481006   0.419487
     6  H    0.003183   0.010972  -0.073004  -0.000200   0.419487   0.680892
     7  H    0.011254  -0.012791  -0.079184   0.005258   0.406639  -0.039679
     8  H    0.011255  -0.012791  -0.079184   0.005258   0.406639  -0.039679
               7          8
     1  O    0.011254   0.011255
     2  H   -0.012791  -0.012791
     3  C   -0.079184  -0.079184
     4  O    0.005258   0.005258
     5  C    0.406639   0.406639
     6  H   -0.039679  -0.039679
     7  H    0.686477  -0.042179
     8  H   -0.042179   0.686476
 Mulliken charges:
               1
     1  O    0.317839
     2  H   -0.495831
     3  C    0.969092
     4  O   -0.699746
     5  C   -0.257793
     6  H    0.038028
     7  H    0.064205
     8  H    0.064205
 Sum of Mulliken charges =  -0.00000
 Mulliken charges with hydrogens summed into heavy atoms:
               1
     1  O   -0.177992
     3  C    0.969092
     4  O   -0.699746
     5  C   -0.091354
 Electronic spatial extent (au):  <R**2>=            445.4318
 Charge=             -0.0000 electrons
 Dipole moment (field-independent basis, Debye):
    X=             -1.0907    Y=              0.0000    Z=             -1.6755  Tot=              1.9992
 Quadrupole moment (field-independent basis, Debye-Ang):
   XX=            -29.3914   YY=            -22.7224   ZZ=            -20.2207
   XY=             -0.0000   XZ=             -4.7545   YZ=              0.0000
 Traceless Quadrupole moment (field-independent basis, Debye-Ang):
   XX=             -5.2799   YY=              1.3891   ZZ=              3.8908
   XY=             -0.0000   XZ=             -4.7545   YZ=              0.0000
 Octapole moment (field-independent basis, Debye-Ang**2):
  XXX=           -103.4350  YYY=              0.0000  ZZZ=             37.8216  XYY=            -28.5163
  XXY=             -0.0000  XXZ=              5.6657  XZZ=            -26.4855  YZZ=             -0.0000
  YYZ=             13.0554  XYZ=              0.0000
 Hexadecapole moment (field-independent basis, Debye-Ang**3):
 XXXX=           -371.4609 YYYY=            -27.5735 ZZZZ=           -203.4521 XXXY=             -0.0001
 XXXZ=             35.0306 YYYX=              0.0000 YYYZ=             -0.0001 ZZZX=             47.8462
 ZZZY=              0.0000 XXYY=            -60.4532 XXZZ=            -84.9854 YYZZ=            -36.7750
 XXYZ=              0.0001 YYXZ=             18.2422 ZZXY=             -0.0000
 N-N= 1.258057049235D+02 E-N=-7.894652938757D+02  KE= 2.304445209988D+02
 Variable Step   Value    
 -------- ---- -----------
     1       5    0.978511
 ---------------------------------------------------------------------------------------------------
                            Z-MATRIX (ANGSTROMS AND DEGREES)
   CD    Cent   Atom    N1       Length/X        N2       Alpha/Y        N3        Beta/Z          J
 ---------------------------------------------------------------------------------------------------
      1      1  O 
      2      2  H        1   0.517806(     1)
      3      3  C        1   1.355197(     2)      2  107.017(     8)
      4      4  O        3   1.202194(     3)      1  122.331(     9)      2    0.000(    14)      0
      5      5  C        3   1.501970(     4)      1  111.616(    10)      4  180.000(    15)      0
      6      6  H        5   1.084596(     5)      3  109.642(    11)      1 -179.999(    16)      0
      7      7  H        5   1.089744(     6)      3  109.817(    12)      1  -58.884(    17)      0
      8      8  H        5   1.089744(     7)      3  109.817(    13)      1   58.885(    18)      0
 ---------------------------------------------------------------------------------------------------
                         Z-Matrix orientation:                         
 ---------------------------------------------------------------------
 Center     Atomic      Atomic             Coordinates (Angstroms)
 Number     Number       Type             X           Y           Z
 ---------------------------------------------------------------------
      1          8           0        0.000000    0.000000    0.000000
      2          1           0        0.000000    0.000000    0.517806
      3          6           0        1.295861    0.000000   -0.396617
      4          8           0        2.207952    0.000000    0.386555
      5          6           0        1.416268   -0.000000   -1.893753
      6          1           0        2.463694   -0.000010   -2.175261
      7          1           0        0.917786   -0.877701   -2.304483
      8          1           0        0.917800    0.877711   -2.304478
 ---------------------------------------------------------------------
                    Distance matrix (angstroms):
                    1          2          3          4          5
     1  O    0.000000
     2  H    0.517806   0.000000
     3  C    1.355197   1.586009   0.000000
     4  O    2.241535   2.211850   1.202194   0.000000
     5  C    2.364765   2.796682   1.501970   2.413828   0.000000
     6  H    3.286570   3.649985   2.127770   2.574549   1.084596
     7  H    2.631222   3.094835   2.133835   3.110719   1.089744
     8  H    2.631227   3.094837   2.133832   3.110712   1.089744
                    6          7          8
     6  H    0.000000
     7  H    1.782378   0.000000
     8  H    1.782380   1.755412   0.000000
 Symmetry turned off by external request.
 Stoichiometry    C2H4O2
 Framework group  C1[X(C2H4O2)]
 Deg. of freedom    18
 Full point group                 C1      NOp   1
 Rotational constants (GHZ):          11.1221170           9.4341068           5.2696963
 Standard basis: 6-311++G(3df,3pd) (5D, 7F)
   228 basis functions,   316 primitive gaussians,   256 cartesian basis functions
    16 alpha electrons       16 beta electrons
       nuclear repulsion energy       125.6321200319 Hartrees.
 NAtoms=    8 NActive=    8 NUniq=    8 SFac= 1.00D+00 NAtFMM=   60 NAOKFM=F Big=F
 Integral buffers will be    131072 words long.
 Raffenetti 2 integral format.
 Two-electron integral symmetry is turned off.
 One-electron integrals computed using PRISM.
 NBasis=   228 RedAO= T EigKep=  3.21D-05  NBF=   228
 NBsUse=   228 1.00D-06 EigRej= -1.00D+00 NBFU=   228
 Initial guess from the checkpoint file:  "trans_acetic_acid_new_freq.chk"
 B after Tr=     0.000223   -0.000000    0.001095
         Rot=    1.000000    0.000000   -0.000112   -0.000000 Ang=  -0.01 deg.
 ExpMin= 3.60D-02 ExpMax= 8.59D+03 ExpMxC= 1.30D+03 IAcc=3 IRadAn=         5 AccDes= 0.00D+00
 Harris functional with IExCor=  402 and IRadAn=       5 diagonalized for initial guess.
 HarFok:  IExCor=  402 AccDes= 0.00D+00 IRadAn=         5 IDoV= 1 UseB2=F ITyADJ=14
 ICtDFT=  3500011 ScaDFX=  1.000000  1.000000  1.000000  1.000000
 FoFCou: FMM=F IPFlag=           0 FMFlag=      100000 FMFlg1=           0
         NFxFlg=           0 DoJE=T BraDBF=F KetDBF=T FulRan=T
         wScrn=  0.000000 ICntrl=       500 IOpCl=  0 I1Cent=   200000004 NGrid=           0
         NMat0=    1 NMatS0=      1 NMatT0=    0 NMatD0=    1 NMtDS0=    0 NMtDT0=    0
 Symmetry not used in FoFCou.
 Keep R1 ints in memory in canonical form, NReq=349262426.
 Requested convergence on RMS density matrix=1.00D-08 within 128 cycles.
 Requested convergence on MAX density matrix=1.00D-06.
 Requested convergence on             energy=1.00D-06.
 No special actions if energy rises.
 SCF Done:  E(RB3LYP) =  -228.515829590     A.U. after    9 cycles
            NFock=  9  Conv=0.45D-08     -V/T= 1.9921

 **********************************************************************

            Population analysis using the SCF density.

 **********************************************************************

 Alpha  occ. eigenvalues --  -19.15051 -19.13222 -10.32440 -10.19289  -1.25784
 Alpha  occ. eigenvalues --   -1.06660  -0.79970  -0.69517  -0.51628  -0.50240
 Alpha  occ. eigenvalues --   -0.49245  -0.42849  -0.42644  -0.41431  -0.35407
 Alpha  occ. eigenvalues --   -0.30158
 Alpha virt. eigenvalues --   -0.01809  -0.01195   0.01694   0.03070   0.03393
 Alpha virt. eigenvalues --    0.05567   0.07209   0.08197   0.08439   0.09091
 Alpha virt. eigenvalues --    0.10594   0.12353   0.12510   0.16100   0.16742
 Alpha virt. eigenvalues --    0.17802   0.20115   0.20470   0.22600   0.23809
 Alpha virt. eigenvalues --    0.26054   0.26934   0.27651   0.28571   0.30800
 Alpha virt. eigenvalues --    0.31093   0.31200   0.32172   0.32421   0.36210
 Alpha virt. eigenvalues --    0.41165   0.42090   0.44555   0.49009   0.49482
 Alpha virt. eigenvalues --    0.51965   0.53414   0.53607   0.54049   0.55602
 Alpha virt. eigenvalues --    0.56500   0.60462   0.60980   0.63481   0.66958
 Alpha virt. eigenvalues --    0.68523   0.70411   0.71762   0.73656   0.74552
 Alpha virt. eigenvalues --    0.75193   0.78831   0.80787   0.83198   0.83292
 Alpha virt. eigenvalues --    0.89076   0.89165   0.92301   0.94464   0.94851
 Alpha virt. eigenvalues --    0.99531   1.04196   1.04239   1.06205   1.07750
 Alpha virt. eigenvalues --    1.13823   1.17878   1.18267   1.19424   1.25537
 Alpha virt. eigenvalues --    1.28560   1.31112   1.34775   1.40192   1.45471
 Alpha virt. eigenvalues --    1.48735   1.49153   1.59172   1.62371   1.65189
 Alpha virt. eigenvalues --    1.66892   1.74204   1.75004   1.76499   1.77251
 Alpha virt. eigenvalues --    1.87279   1.91608   1.92333   2.04020   2.04775
 Alpha virt. eigenvalues --    2.08511   2.16865   2.24831   2.26942   2.28169
 Alpha virt. eigenvalues --    2.31668   2.35567   2.45497   2.47890   2.53140
 Alpha virt. eigenvalues --    2.57505   2.61218   2.69544   2.72682   2.74962
 Alpha virt. eigenvalues --    2.80386   2.82875   2.86900   2.91237   2.94620
 Alpha virt. eigenvalues --    2.95379   3.00587   3.08757   3.12605   3.14693
 Alpha virt. eigenvalues --    3.23169   3.24530   3.27126   3.29276   3.29703
 Alpha virt. eigenvalues --    3.36607   3.46582   3.48256   3.51470   3.58905
 Alpha virt. eigenvalues --    3.63310   3.64321   3.66595   3.75128   3.77391
 Alpha virt. eigenvalues --    3.84769   3.96995   3.97865   4.01926   4.07467
 Alpha virt. eigenvalues --    4.10970   4.18320   4.20588   4.26478   4.36203
 Alpha virt. eigenvalues --    4.36970   4.44666   4.63836   4.73015   4.74535
 Alpha virt. eigenvalues --    4.78128   4.84036   4.87372   4.89999   4.91234
 Alpha virt. eigenvalues --    4.93572   5.06537   5.08211   5.14699   5.22776
 Alpha virt. eigenvalues --    5.25687   5.26217   5.35079   5.36959   5.39923
 Alpha virt. eigenvalues --    5.47362   5.54047   5.59522   5.60946   5.76168
 Alpha virt. eigenvalues --    5.77431   6.01443   6.03947   6.07885   6.18616
 Alpha virt. eigenvalues --    6.25161   6.36753   6.40295   6.91550   7.08385
 Alpha virt. eigenvalues --    7.15534   7.30378   7.47536   7.62390   7.66601
 Alpha virt. eigenvalues --    7.84396   7.87883   7.93905   8.20017   8.29580
 Alpha virt. eigenvalues --    8.43842   8.44416   8.46288   8.64276   8.66563
 Alpha virt. eigenvalues --    8.70718   9.35926   9.53318   9.77450   9.81614
 Alpha virt. eigenvalues --   10.81136  10.93017  13.45136  14.36523  14.39473
 Alpha virt. eigenvalues --   14.54717  14.66634  14.68935  14.91109  15.13345
 Alpha virt. eigenvalues --   15.34036  15.65575  16.71583  25.10756  26.18160
 Alpha virt. eigenvalues --   50.45391  51.91408
          Condensed to atoms (all electrons):
               1          2          3          4          5          6
     1  O   12.934871  -4.847395  -0.395900  -0.118292   0.136758   0.004175
     2  H   -4.847395   6.177403   0.478883  -0.024055  -0.326564   0.010190
     3  C   -0.395900   0.478883   5.105603   0.231223  -0.161070  -0.072664
     4  O   -0.118292  -0.024055   0.231223   8.707274  -0.106507  -0.000151
     5  C    0.136758  -0.326564  -0.161070  -0.106507   5.484553   0.418389
     6  H    0.004175   0.010190  -0.072664  -0.000151   0.418389   0.681063
     7  H    0.009655  -0.011596  -0.078851   0.005254   0.406936  -0.039477
     8  H    0.009656  -0.011596  -0.078851   0.005253   0.406935  -0.039477
               7          8
     1  O    0.009655   0.009656
     2  H   -0.011596  -0.011596
     3  C   -0.078851  -0.078851
     4  O    0.005254   0.005253
     5  C    0.406936   0.406935
     6  H   -0.039477  -0.039477
     7  H    0.686128  -0.042370
     8  H   -0.042370   0.686127
 Mulliken charges:
               1
     1  O    0.266472
     2  H   -0.445270
     3  C    0.971628
     4  O   -0.699999
     5  C   -0.259429
     6  H    0.037953
     7  H    0.064322
     8  H    0.064323
 Sum of Mulliken charges =  -0.00000
 Mulliken charges with hydrogens summed into heavy atoms:
               1
     1  O   -0.178798
     3  C    0.971628
     4  O   -0.699999
     5  C   -0.092831
 Electronic spatial extent (au):  <R**2>=            445.5053
 Charge=             -0.0000 electrons
 Dipole moment (field-independent basis, Debye):
    X=             -1.0991    Y=              0.0000    Z=             -1.6643  Tot=              1.9945
 Quadrupole moment (field-independent basis, Debye-Ang):
   XX=            -29.4196   YY=            -22.7386   ZZ=            -20.2259
   XY=             -0.0000   XZ=             -4.7559   YZ=              0.0000
 Traceless Quadrupole moment (field-independent basis, Debye-Ang):
   XX=             -5.2916   YY=              1.3895   ZZ=              3.9021
   XY=             -0.0000   XZ=             -4.7559   YZ=              0.0000
 Octapole moment (field-independent basis, Debye-Ang**2):
  XXX=           -103.4799  YYY=              0.0000  ZZZ=             37.8285  XYY=            -28.5209
  XXY=             -0.0000  XXZ=              5.6573  XZZ=            -26.4989  YZZ=             -0.0000
  YYZ=             13.0487  XYZ=              0.0000
 Hexadecapole moment (field-independent basis, Debye-Ang**3):
 XXXX=           -371.6020 YYYY=            -27.5950 ZZZZ=           -203.5425 XXXY=             -0.0001
 XXXZ=             35.0267 YYYX=              0.0000 YYYZ=             -0.0001 ZZZX=             47.8628
 ZZZY=              0.0000 XXYY=            -60.4685 XXZZ=            -85.0223 YYZZ=            -36.7929
 XXYZ=              0.0001 YYXZ=             18.2428 ZZXY=             -0.0000
 N-N= 1.256321200319D+02 E-N=-7.891595739377D+02  KE= 2.303462099004D+02
 Variable Step   Value    
 -------- ---- -----------
     1       6    0.997408
 ---------------------------------------------------------------------------------------------------
                            Z-MATRIX (ANGSTROMS AND DEGREES)
   CD    Cent   Atom    N1       Length/X        N2       Alpha/Y        N3        Beta/Z          J
 ---------------------------------------------------------------------------------------------------
      1      1  O 
      2      2  H        1   0.527806(     1)
      3      3  C        1   1.355197(     2)      2  107.017(     8)
      4      4  O        3   1.202194(     3)      1  122.331(     9)      2    0.000(    14)      0
      5      5  C        3   1.501970(     4)      1  111.616(    10)      4  180.000(    15)      0
      6      6  H        5   1.084596(     5)      3  109.642(    11)      1 -179.999(    16)      0
      7      7  H        5   1.089744(     6)      3  109.817(    12)      1  -58.884(    17)      0
      8      8  H        5   1.089744(     7)      3  109.817(    13)      1   58.885(    18)      0
 ---------------------------------------------------------------------------------------------------
                         Z-Matrix orientation:                         
 ---------------------------------------------------------------------
 Center     Atomic      Atomic             Coordinates (Angstroms)
 Number     Number       Type             X           Y           Z
 ---------------------------------------------------------------------
      1          8           0        0.000000    0.000000    0.000000
      2          1           0        0.000000    0.000000    0.527806
      3          6           0        1.295861    0.000000   -0.396617
      4          8           0        2.207952    0.000000    0.386555
      5          6           0        1.416268   -0.000000   -1.893753
      6          1           0        2.463694   -0.000010   -2.175261
      7          1           0        0.917786   -0.877701   -2.304483
      8          1           0        0.917800    0.877711   -2.304478
 ---------------------------------------------------------------------
                    Distance matrix (angstroms):
                    1          2          3          4          5
     1  O    0.000000
     2  H    0.527806   0.000000
     3  C    1.355197   1.591795   0.000000
     4  O    2.241535   2.212466   1.202194   0.000000
     5  C    2.364765   2.805309   1.501970   2.413828   0.000000
     6  H    3.286570   3.657370   2.127770   2.574549   1.084596
     7  H    2.631222   3.103957   2.133835   3.110719   1.089744
     8  H    2.631227   3.103959   2.133832   3.110712   1.089744
                    6          7          8
     6  H    0.000000
     7  H    1.782378   0.000000
     8  H    1.782380   1.755412   0.000000
 Symmetry turned off by external request.
 Stoichiometry    C2H4O2
 Framework group  C1[X(C2H4O2)]
 Deg. of freedom    18
 Full point group                 C1      NOp   1
 Rotational constants (GHZ):          11.1245900           9.4254788           5.2675577
 Standard basis: 6-311++G(3df,3pd) (5D, 7F)
[...]
                         Z-Matrix orientation:                         
 ---------------------------------------------------------------------
 Center     Atomic      Atomic             Coordinates (Angstroms)
 Number     Number       Type             X           Y           Z
 ---------------------------------------------------------------------
      1          8           0        0.000000    0.000000    0.000000
      2          1           0        0.000000    0.000000    1.967806
      3          6           0        1.295861    0.000000   -0.396617
      4          8           0        2.207952    0.000000    0.386555
      5          6           0        1.416268   -0.000000   -1.893753
      6          1           0        2.463694   -0.000010   -2.175261
      7          1           0        0.917786   -0.877701   -2.304483
      8          1           0        0.917800    0.877711   -2.304478
 ---------------------------------------------------------------------
                    Distance matrix (angstroms):
                    1          2          3          4          5
     1  O    0.000000
     2  H    1.967806   0.000000
     3  C    1.355197   2.696247   0.000000
     4  O    2.241535   2.715770   1.202194   0.000000
     5  C    2.364765   4.113082   1.501970   2.413828   0.000000
     6  H    3.286570   4.820247   2.127770   2.574549   1.084596
     7  H    2.631222   4.457032   2.133835   3.110719   1.089744
     8  H    2.631227   4.457033   2.133832   3.110712   1.089744
                    6          7          8
     6  H    0.000000
     7  H    1.782378   0.000000
     8  H    1.782380   1.755412   0.000000
 Symmetry turned off by external request.
 Stoichiometry    C2H4O2
 Framework group  C1[X(C2H4O2)]
 Deg. of freedom    18
 Full point group                 C1      NOp   1
 Rotational constants (GHZ):          11.3988773           7.8493533           4.7851032
 Standard basis: 6-311++G(3df,3pd) (5D, 7F)
   228 basis functions,   316 primitive gaussians,   256 cartesian basis functions
    16 alpha electrons       16 beta electrons
       nuclear repulsion energy       117.9252208896 Hartrees.
 NAtoms=    8 NActive=    8 NUniq=    8 SFac= 1.00D+00 NAtFMM=   60 NAOKFM=F Big=F
 Integral buffers will be    131072 words long.
 Raffenetti 2 integral format.
 Two-electron integral symmetry is turned off.
 One-electron integrals computed using PRISM.
 NBasis=   228 RedAO= T EigKep=  4.51D-05  NBF=   228
 NBsUse=   228 1.00D-06 EigRej= -1.00D+00 NBFU=   228
 Initial guess from the checkpoint file:  "trans_acetic_acid_new_freq.chk"
 B after Tr=     0.000187   -0.000000    0.001051
         Rot=    1.000000    0.000000   -0.000102   -0.000000 Ang=  -0.01 deg.
 ExpMin= 3.60D-02 ExpMax= 8.59D+03 ExpMxC= 1.30D+03 IAcc=3 IRadAn=         5 AccDes= 0.00D+00
 Harris functional with IExCor=  402 and IRadAn=       5 diagonalized for initial guess.
 HarFok:  IExCor=  402 AccDes= 0.00D+00 IRadAn=         5 IDoV= 1 UseB2=F ITyADJ=14
 ICtDFT=  3500011 ScaDFX=  1.000000  1.000000  1.000000  1.000000
 FoFCou: FMM=F IPFlag=           0 FMFlag=      100000 FMFlg1=           0
         NFxFlg=           0 DoJE=T BraDBF=F KetDBF=T FulRan=T
         wScrn=  0.000000 ICntrl=       500 IOpCl=  0 I1Cent=   200000004 NGrid=           0
         NMat0=    1 NMatS0=      1 NMatT0=    0 NMatD0=    1 NMtDS0=    0 NMtDT0=    0
 Symmetry not used in FoFCou.
 Keep R1 ints in memory in canonical form, NReq=349262426.
 Requested convergence on RMS density matrix=1.00D-08 within 128 cycles.
 Requested convergence on MAX density matrix=1.00D-06.
 Requested convergence on             energy=1.00D-06.
 No special actions if energy rises.
 SCF Done:  E(RB3LYP) =  -229.012116816     A.U. after    9 cycles
            NFock=  9  Conv=0.86D-08     -V/T= 2.0051

 **********************************************************************

            Population analysis using the SCF density.

 **********************************************************************

 Alpha  occ. eigenvalues --  -19.18283 -19.12192 -10.30832 -10.20045  -1.08688
 Alpha  occ. eigenvalues --   -0.99245  -0.76367  -0.55199  -0.48495  -0.47645
 Alpha  occ. eigenvalues --   -0.47111  -0.42143  -0.39856  -0.34752  -0.31851
 Alpha  occ. eigenvalues --   -0.28566
 Alpha virt. eigenvalues --   -0.19068  -0.00612  -0.00387   0.03357   0.03553
 Alpha virt. eigenvalues --    0.03889   0.05065   0.07217   0.08087   0.09052
 Alpha virt. eigenvalues --    0.09355   0.10513   0.11505   0.14076   0.16234
 Alpha virt. eigenvalues --    0.17023   0.19256   0.21361   0.22724   0.24009
 Alpha virt. eigenvalues --    0.25276   0.25298   0.26299   0.27804   0.29732
 Alpha virt. eigenvalues --    0.30077   0.31327   0.31613   0.31857   0.34374
 Alpha virt. eigenvalues --    0.37359   0.38422   0.40146   0.42563   0.46505
 Alpha virt. eigenvalues --    0.47839   0.50291   0.51683   0.53500   0.53551
 Alpha virt. eigenvalues --    0.54513   0.54877   0.55720   0.56864   0.63364
 Alpha virt. eigenvalues --    0.64576   0.66413   0.70177   0.71362   0.74223
 Alpha virt. eigenvalues --    0.75555   0.78265   0.79011   0.80869   0.83989
 Alpha virt. eigenvalues --    0.84636   0.89378   0.90828   0.93908   0.95499
 Alpha virt. eigenvalues --    0.97075   1.00326   1.03527   1.05550   1.06730
 Alpha virt. eigenvalues --    1.07519   1.09071   1.10255   1.14561   1.18252
 Alpha virt. eigenvalues --    1.23982   1.27094   1.29515   1.39895   1.41608
 Alpha virt. eigenvalues --    1.47940   1.49464   1.56166   1.56814   1.62751
 Alpha virt. eigenvalues --    1.66050   1.71401   1.73347   1.74581   1.75586
 Alpha virt. eigenvalues --    1.77011   1.79621   1.89918   1.92500   1.93478
 Alpha virt. eigenvalues --    1.96317   2.03673   2.08817   2.11776   2.19222
 Alpha virt. eigenvalues --    2.24826   2.34801   2.35544   2.43590   2.44791
 Alpha virt. eigenvalues --    2.48442   2.57318   2.58184   2.64783   2.70849
 Alpha virt. eigenvalues --    2.76527   2.83183   2.85319   2.86461   2.88303
 Alpha virt. eigenvalues --    2.88832   2.95338   2.97416   2.97849   2.99852
 Alpha virt. eigenvalues --    3.02910   3.05538   3.12923   3.14767   3.15312
 Alpha virt. eigenvalues --    3.21209   3.23700   3.27616   3.33355   3.34084
 Alpha virt. eigenvalues --    3.40510   3.48150   3.50660   3.52826   3.57511
 Alpha virt. eigenvalues --    3.62861   3.66521   3.72720   3.74618   3.84954
 Alpha virt. eigenvalues --    3.91290   3.97588   4.03013   4.04949   4.07371
 Alpha virt. eigenvalues --    4.16472   4.20669   4.30132   4.36416   4.38557
 Alpha virt. eigenvalues --    4.59060   4.62848   4.74489   4.82622   4.86723
 Alpha virt. eigenvalues --    4.87690   4.89811   4.92517   5.02995   5.04072
 Alpha virt. eigenvalues --    5.04251   5.08243   5.09585   5.14263   5.15528
 Alpha virt. eigenvalues --    5.27673   5.28752   5.34089   5.39465   5.39993
 Alpha virt. eigenvalues --    5.47373   5.56114   5.58471   5.60790   5.68539
 Alpha virt. eigenvalues --    5.97721   6.00670   6.17783   6.35296   6.84200
 Alpha virt. eigenvalues --    6.91887   7.16324   7.31588   7.48308   7.62199
 Alpha virt. eigenvalues --    7.65809   7.82853   7.85628   7.95760   8.07930
 Alpha virt. eigenvalues --    8.13139   8.20670   8.29400   8.31535   8.43126
 Alpha virt. eigenvalues --    8.44140   8.44999   8.63792   8.66297   8.70828
 Alpha virt. eigenvalues --    9.43082   9.77192   9.79952  14.29741  14.37305
 Alpha virt. eigenvalues --   14.37762  14.39738  14.45691  14.51550  14.68789
 Alpha virt. eigenvalues --   14.83910  14.92681  15.14190  25.09588  26.15901
 Alpha virt. eigenvalues --   50.12196  50.47283
          Condensed to atoms (all electrons):
               1          2          3          4          5          6
     1  O    8.550217   0.148885   0.230998  -0.186548  -0.194035   0.011749
     2  H    0.148885   0.586315  -0.015165   0.014705   0.009882  -0.001020
     3  C    0.230998  -0.015165   4.867334   0.218192  -0.134355  -0.073117
     4  O   -0.186548   0.014705   0.218192   8.715060  -0.084420  -0.005697
     5  C   -0.194035   0.009882  -0.134355  -0.084420   5.443392   0.406317
     6  H    0.011749  -0.001020  -0.073117  -0.005697   0.406317   0.688903
     7  H   -0.000332   0.000069  -0.074324   0.003807   0.408719  -0.038638
     8  H   -0.000332   0.000069  -0.074324   0.003806   0.408718  -0.038637
               7          8
     1  O   -0.000332  -0.000332
     2  H    0.000069   0.000069
     3  C   -0.074324  -0.074324
     4  O    0.003807   0.003806
     5  C    0.408719   0.408718
     6  H   -0.038638  -0.038637
     7  H    0.671987  -0.042570
     8  H   -0.042570   0.671986
 Mulliken charges:
               1
     1  O   -0.560602
     2  H    0.256260
     3  C    1.054760
     4  O   -0.678906
     5  C   -0.264219
     6  H    0.050140
     7  H    0.071284
     8  H    0.071284
 Sum of Mulliken charges =  -0.00000
 Mulliken charges with hydrogens summed into heavy atoms:
               1
     1  O   -0.304342
     3  C    1.054760
     4  O   -0.678906
     5  C   -0.071512
 Electronic spatial extent (au):  <R**2>=            456.9439
 Charge=             -0.0000 electrons
 Dipole moment (field-independent basis, Debye):
    X=             -1.0027    Y=             -0.0000    Z=             -0.7591  Tot=              1.2576
 Quadrupole moment (field-independent basis, Debye-Ang):
   XX=            -30.4650   YY=            -23.9887   ZZ=            -16.0043
   XY=             -0.0000   XZ=             -5.2582   YZ=              0.0000
 Traceless Quadrupole moment (field-independent basis, Debye-Ang):
   XX=             -6.9790   YY=             -0.5027   ZZ=              7.4817
   XY=             -0.0000   XZ=             -5.2582   YZ=              0.0000
 Octapole moment (field-independent basis, Debye-Ang**2):
  XXX=           -104.1420  YYY=              0.0000  ZZZ=             41.9270  XYY=            -28.6534
  XXY=             -0.0000  XXZ=              2.5654  XZZ=            -25.7545  YZZ=             -0.0000
  YYZ=             10.7760  XYZ=              0.0000
 Hexadecapole moment (field-independent basis, Debye-Ang**3):
 XXXX=           -376.4974 YYYY=            -29.5250 ZZZZ=           -199.0155 XXXY=             -0.0001
 XXXZ=             32.3272 YYYX=              0.0000 YYYZ=             -0.0001 ZZZX=             45.0194
 ZZZY=              0.0000 XXYY=            -61.4303 XXZZ=            -87.6044 YYZZ=            -40.9275
 XXYZ=              0.0001 YYXZ=             17.9557 ZZXY=             -0.0000
 N-N= 1.179252208896D+02 E-N=-7.738330651820D+02  KE= 2.278449562828D+02
 Scan completed.
 
 Summary of the potential surface scan:
   N      B1          SCF    
 ----  ---------  -----------
    1     0.4678   -228.19125
    2     0.4778   -228.26620
    3     0.4878   -228.33574
    4     0.4978   -228.40028
    5     0.5078   -228.46020
    6     0.5178   -228.51583
    7     0.5278   -228.56749
    8     0.5378   -228.61547
    9     0.5478   -228.66003
   10     0.5578   -228.70141
   11     0.5678   -228.73985
   12     0.5778   -228.77556
   13     0.5878   -228.80871
   14     0.5978   -228.83950
   15     0.6078   -228.86808
   16     0.6178   -228.89460
   17     0.6278   -228.91922
   18     0.6378   -228.94205
   19     0.6478   -228.96322
   20     0.6578   -228.98285
   21     0.6678   -229.00102
   22     0.6778   -229.01785
   23     0.6878   -229.03341
   24     0.6978   -229.04780
   25     0.7078   -229.06109
   26     0.7178   -229.07335
   27     0.7278   -229.08464
   28     0.7378   -229.09504
   29     0.7478   -229.10459
   30     0.7578   -229.11335
   31     0.7678   -229.12138
   32     0.7778   -229.12871
   33     0.7878   -229.13540
   34     0.7978   -229.14148
   35     0.8078   -229.14699
   36     0.8178   -229.15197
   37     0.8278   -229.15645
   38     0.8378   -229.16047
   39     0.8478   -229.16405
   40     0.8578   -229.16722
   41     0.8678   -229.17000
   42     0.8778   -229.17243
   43     0.8878   -229.17453
   44     0.8978   -229.17631
   45     0.9078   -229.17780
   46     0.9178   -229.17901
   47     0.9278   -229.17997
   48     0.9378   -229.18069
   49     0.9478   -229.18119
   50     0.9578   -229.18148
   51     0.9678   -229.18157
   52     0.9778   -229.18148
   53     0.9878   -229.18123
   54     0.9978   -229.18082
   55     1.0078   -229.18026
   56     1.0178   -229.17956
   57     1.0278   -229.17874
   58     1.0378   -229.17780
   59     1.0478   -229.17674
   60     1.0578   -229.17559
   61     1.0678   -229.17434
   62     1.0778   -229.17301
   63     1.0878   -229.17159
   64     1.0978   -229.17011
   65     1.1078   -229.16855
   66     1.1178   -229.16692
   67     1.1278   -229.16524
   68     1.1378   -229.16351
   69     1.1478   -229.16173
   70     1.1578   -229.15990
   71     1.1678   -229.15803
   72     1.1778   -229.15613
   73     1.1878   -229.15419
   74     1.1978   -229.15222
   75     1.2078   -229.15023
   76     1.2178   -229.14821
   77     1.2278   -229.14617
   78     1.2378   -229.14411
   79     1.2478   -229.14204
   80     1.2578   -229.13995
   81     1.2678   -229.13785
   82     1.2778   -229.13574
   83     1.2878   -229.13362
   84     1.2978   -229.13150
   85     1.3078   -229.12937
   86     1.3178   -229.12723
   87     1.3278   -229.12510
   88     1.3378   -229.12297
   89     1.3478   -229.12083
   90     1.3578   -229.11870
   91     1.3678   -229.11657
   92     1.3778   -229.11445
   93     1.3878   -229.11233
   94     1.3978   -229.11022
   95     1.4078   -229.10811
   96     1.4178   -229.10601
   97     1.4278   -229.10393
   98     1.4378   -229.10185
   99     1.4478   -229.09978
  100     1.4578   -229.09772
  101     1.4678   -229.09567
  102     1.4778   -229.09363
  103     1.4878   -229.09160
  104     1.4978   -229.08959
  105     1.5078   -229.08759
  106     1.5178   -229.08560
  107     1.5278   -229.08363
  108     1.5378   -229.08167
  109     1.5478   -229.07973
  110     1.5578   -229.07780
  111     1.5678   -229.07588
  112     1.5778   -229.07398
  113     1.5878   -229.07209
  114     1.5978   -229.07022
  115     1.6078   -229.06837
  116     1.6178   -229.06653
  117     1.6278   -229.06470
  118     1.6378   -229.06289
  119     1.6478   -229.06110
  120     1.6578   -229.05933
  121     1.6678   -229.05757
  122     1.6778   -229.05582
  123     1.6878   -229.05410
  124     1.6978   -229.05238
  125     1.7078   -229.05069
  126     1.7178   -229.04901
  127     1.7278   -229.04735
  128     1.7378   -229.04570
  129     1.7478   -229.04407
  130     1.7578   -229.04246
  131     1.7678   -229.04086
  132     1.7778   -229.03928
  133     1.7878   -229.03771
  134     1.7978   -229.03616
  135     1.8078   -229.03462
  136     1.8178   -229.03310
  137     1.8278   -229.03160
  138     1.8378   -229.03011
  139     1.8478   -229.02864
  140     1.8578   -229.02718
  141     1.8678   -229.02574
  142     1.8778   -229.02431
  143     1.8878   -229.02290
  144     1.8978   -229.02150
  145     1.9078   -229.02012
  146     1.9178   -229.01875
  147     1.9278   -229.01739
  148     1.9378   -229.01605
  149     1.9478   -229.01473
  150     1.9578   -229.01341
  151     1.9678   -229.01212
 ----  ---------  -----------
  
 1\1\GINC-AQ89\Scan\RB3LYP\6-311++G(3df,3pd)\C2H4O2\PRAKTIKUM\08-Nov-20
 24\1\\# B3LYP/6-311++G(3df,3pd) SCAN SCF=VERYTIGHT INT=ULTRAFINE # GEO
 M=NOCROWD NOSYMM POP=ALWAYS\\Trans_Acetic_acid bond_scan\\0,1\O\H,1,B1
 \C,1,B2,2,A1\O,3,B3,1,A2,2,D1,0\C,3,B4,1,A3,4,D2,0\H,5,B5,3,A4,1,D3,0\
 H,5,B6,3,A5,1,D4,0\H,5,B7,3,A6,1,D5,0\\B1=0.4678055,s,150,0.01\B2=1.35
 519738\B3=1.20219377\B4=1.50196964\B5=1.08459558\B6=1.08974434\B7=1.08
 97441\A1=107.01749324\A2=122.33129155\A3=111.61561663\A4=109.64154941\
 A5=109.8172745\A6=109.81708265\D1=0.\D2=180.\D3=-179.99943909\D4=-58.8
 8366649\D5=58.88465464\\Version=AS64L-G16RevA.03\HF=-228.1912543,-228.
 2661988,-228.3357396,-228.4002821,-228.4601983,-228.5158296,-228.56748
 96,-228.6154669,-228.6600267,-228.7014139,-228.7398542,-228.7755557,-2
 28.8087105,-228.8394962,-228.8680769,-228.8946047,-228.9192201,-228.94
 20531,-228.9632246,-228.9828462,-229.001022,-229.0178479,-229.0334133,
 -229.047801,-229.0610881,-229.0733463,-229.0846422,-229.0950377,-229.1
 045906,-229.1133546,-229.1213802,-229.1287142,-229.1354007,-229.141480
 7,-229.1469925,-229.1519723,-229.1564538,-229.1604689,-229.1640473,-22
 9.167217,-229.1700041,-229.1724331,-229.1745274,-229.1763085,-229.1777
 968,-229.1790116,-229.1799707,-229.1806909,-229.181188,-229.1814769,-2
 29.1815714,-229.1814848,-229.1812291,-229.180816,-229.1802563,-229.179
 5599,-229.1787366,-229.1777952,-229.1767441,-229.1755914,-229.1743443,
 -229.17301,-229.1715949,-229.1701052,-229.1685466,-229.1669248,-229.16
 52447,-229.1635112,-229.1617289,-229.159902,-229.1580344,-229.1561301,
 -229.1541924,-229.1522246,-229.15023,-229.1482114,-229.1461715,-229.14
 4113,-229.1420382,-229.1399495,-229.1378489,-229.1357385,-229.13362,-2
 29.1314953,-229.129366,-229.1272335,-229.1250995,-229.1229651,-229.120
 8317,-229.1187004,-229.1165724,-229.1144487,-229.1123302,-229.1102178,
 -229.1081124,-229.1060148,-229.1039256,-229.1018456,-229.0997754,-229.
 0977157,-229.0956669,-229.0936296,-229.0916042,-229.0895912,-229.08759
 11,-229.0856042,-229.0836308,-229.0816713,-229.0797259,-229.0777951,-2
 29.0758789,-229.0739777,-229.0720917,-229.0702209,-229.0683657,-229.06
 65261,-229.0647023,-229.0628944,-229.0611024,-229.0593265,-229.0575667
 ,-229.055823,-229.0540955,-229.0523843,-229.0506892,-229.0490103,-229.
 0473477,-229.0457011,-229.0440707,-229.0424564,-229.0408581,-229.03927
 57,-229.0377092,-229.0361585,-229.0346235,-229.0331041,-229.0316003,-2
 29.0301119,-229.0286388,-229.0271809,-229.0257382,-229.0243105,-229.02
 28977,-229.0214996,-229.0201162,-229.0187473,-229.0173929,-229.0160527
 ,-229.0147267,-229.0134148,-229.0121168\RMSD=9.507e-09,5.132e-09,4.962
 e-09,4.838e-09,4.654e-09,4.492e-09,4.265e-09,4.062e-09,3.860e-09,3.641
 e-09,3.414e-09,3.198e-09,3.005e-09,2.796e-09,2.596e-09,2.396e-09,2.191
 e-09,9.450e-09,9.667e-09,9.399e-09,9.685e-09,9.048e-09,8.605e-09,7.923
 e-09,6.565e-09,4.987e-09,5.596e-09,6.739e-09,7.190e-09,7.297e-09,7.292
 e-09,7.260e-09,7.223e-09,7.190e-09,7.161e-09,7.135e-09,7.111e-09,7.086
 e-09,7.061e-09,7.038e-09,7.013e-09,6.986e-09,6.959e-09,6.932e-09,6.902
 e-09,6.872e-09,6.841e-09,6.808e-09,6.774e-09,6.739e-09,6.700e-09,6.663
 e-09,6.622e-09,6.582e-09,6.537e-09,6.491e-09,6.446e-09,6.398e-09,6.347
 e-09,6.298e-09,6.247e-09,6.194e-09,6.138e-09,6.083e-09,6.028e-09,5.969
 e-09,5.911e-09,5.853e-09,5.794e-09,5.736e-09,5.680e-09,5.624e-09,5.569
 e-09,5.520e-09,5.475e-09,5.434e-09,5.398e-09,5.367e-09,5.345e-09,5.332
 e-09,5.326e-09,5.329e-09,5.345e-09,5.370e-09,5.408e-09,5.457e-09,5.522
 e-09,5.601e-09,5.694e-09,5.805e-09,5.930e-09,6.074e-09,6.234e-09,6.409
 e-09,6.604e-09,6.818e-09,7.049e-09,7.300e-09,7.570e-09,7.853e-09,8.159
 e-09,8.481e-09,8.824e-09,9.193e-09,9.569e-09,9.965e-09,2.811e-09,2.959
 e-09,3.113e-09,3.273e-09,3.434e-09,3.598e-09,3.766e-09,3.934e-09,4.103
 e-09,4.273e-09,4.443e-09,4.613e-09,4.781e-09,4.949e-09,5.117e-09,5.280
 e-09,5.441e-09,5.601e-09,5.755e-09,5.910e-09,6.058e-09,6.206e-09,6.348
 e-09,6.486e-09,6.621e-09,6.749e-09,6.879e-09,7.001e-09,7.118e-09,7.234
 e-09,7.344e-09,7.451e-09,7.554e-09,7.656e-09,7.749e-09,7.844e-09,7.934
 e-09,8.021e-09,8.103e-09,8.185e-09,8.264e-09,8.340e-09,8.413e-09,8.483
 e-09,8.551e-09\PG=C01 [X(C2H4O2)]\\@


 IF YOU GIVE A BOY AND A PIG EVERYTHING THEY WANT,
 YOU'LL GET A BAD BOY AND A GOOD PIG.
 Job cpu time:       0 days  2 hours  6 minutes 56.9 seconds.
 Elapsed time:       0 days  0 hours 24 minutes 45.4 seconds.
 File lengths (MBytes):  RWF=     30 Int=      0 D2E=      0 Chk=      6 Scr=      1
 Normal termination of Gaussian 16 at Fri Nov  8 11:13:41 2024.
