 Entering Gaussian System, Link 0=g16
 Input=trans_a_deut_freq.com
 Output=trans_a_deut_freq.log
 Initial command:
 /usr/local/g16/l1.exe "/scratch/praktikum/Gau-12657.inp" -scrdir="/scratch/praktikum/"
 Entering Link 1 = /usr/local/g16/l1.exe PID=     12659.
  
 Copyright (c) 1988,1990,1992,1993,1995,1998,2003,2009,2016,
            Gaussian, Inc.  All Rights Reserved.
  
 This is part of the Gaussian(R) 16 program.  It is based on
 the Gaussian(R) 09 system (copyright 2009, Gaussian, Inc.),
 the Gaussian(R) 03 system (copyright 2003, Gaussian, Inc.),
 the Gaussian(R) 98 system (copyright 1998, Gaussian, Inc.),
 the Gaussian(R) 94 system (copyright 1995, Gaussian, Inc.),
 the Gaussian 92(TM) system (copyright 1992, Gaussian, Inc.),
 the Gaussian 90(TM) system (copyright 1990, Gaussian, Inc.),
 the Gaussian 88(TM) system (copyright 1988, Gaussian, Inc.),
 the Gaussian 86(TM) system (copyright 1986, Carnegie Mellon
 University), and the Gaussian 82(TM) system (copyright 1983,
 Carnegie Mellon University). Gaussian is a federally registered
 trademark of Gaussian, Inc.
  
 This software contains proprietary and confidential information,
 including trade secrets, belonging to Gaussian, Inc.
  
 This software is provided under written license and may be
 used, copied, transmitted, or stored only in accord with that
 written license.
  
 The following legend is applicable only to US Government
 contracts under FAR:
  
                    RESTRICTED RIGHTS LEGEND
  
 Use, reproduction and disclosure by the US Government is
 subject to restrictions as set forth in subparagraphs (a)
 and (c) of the Commercial Computer Software - Restricted
 Rights clause in FAR 52.227-19.
  
 Gaussian, Inc.
 340 Quinnipiac St., Bldg. 40, Wallingford CT 06492
  
  
 ---------------------------------------------------------------
 Warning -- This program may not be used in any manner that
 competes with the business of Gaussian, Inc. or will provide
 assistance to any competitor of Gaussian, Inc.  The licensee
 of this program is prohibited from giving any competitor of
 Gaussian, Inc. access to this program.  By using this program,
 the user acknowledges that Gaussian, Inc. is engaged in the
 business of creating and licensing software in the field of
 computational chemistry and represents and warrants to the
 licensee that it is not a competitor of Gaussian, Inc. and that
 it will not use this program in any manner prohibited above.
 ---------------------------------------------------------------
  

 Cite this work as:
 Gaussian 16, Revision A.03,
 M. J. Frisch, G. W. Trucks, H. B. Schlegel, G. E. Scuseria, 
 M. A. Robb, J. R. Cheeseman, G. Scalmani, V. Barone, 
 G. A. Petersson, H. Nakatsuji, X. Li, M. Caricato, A. V. Marenich, 
 J. Bloino, B. G. Janesko, R. Gomperts, B. Mennucci, H. P. Hratchian, 
 J. V. Ortiz, A. F. Izmaylov, J. L. Sonnenberg, D. Williams-Young, 
 F. Ding, F. Lipparini, F. Egidi, J. Goings, B. Peng, A. Petrone, 
 T. Henderson, D. Ranasinghe, V. G. Zakrzewski, J. Gao, N. Rega, 
 G. Zheng, W. Liang, M. Hada, M. Ehara, K. Toyota, R. Fukuda, 
 J. Hasegawa, M. Ishida, T. Nakajima, Y. Honda, O. Kitao, H. Nakai, 
 T. Vreven, K. Throssell, J. A. Montgomery, Jr., J. E. Peralta, 
 F. Ogliaro, M. J. Bearpark, J. J. Heyd, E. N. Brothers, K. N. Kudin, 
 V. N. Staroverov, T. A. Keith, R. Kobayashi, J. Normand, 
 K. Raghavachari, A. P. Rendell, J. C. Burant, S. S. Iyengar, 
 J. Tomasi, M. Cossi, J. M. Millam, M. Klene, C. Adamo, R. Cammi, 
 J. W. Ochterski, R. L. Martin, K. Morokuma, O. Farkas, 
 J. B. Foresman, and D. J. Fox, Gaussian, Inc., Wallingford CT, 2016.
 
 ******************************************
 Gaussian 16:  AS64L-G16RevA.03 25-Dec-2016
                 8-Nov-2024 
 ******************************************
 %nprocs=6
 Will use up to    6 processors via shared memory.
 %chk=trans_acetic_acid_new_freq.chk
 ----------------------------------------------------------
 # freq b3lyp/6-311++g(3df,3pd) int=ultrafine scf=verytight
 ----------------------------------------------------------
 1/10=4,30=1,38=1/1,3;
 2/12=2,17=6,18=5,40=1/2;
 3/5=4,6=6,7=1616,11=2,25=1,30=1,71=2,74=-5,75=-5,140=1/1,2,3;
 4//1;
 5/5=2,17=3,38=5,98=1/2;
 8/6=4,10=90,11=11/1;
 11/6=1,8=1,9=11,15=111,16=1/1,2,10;
 10/6=1/2;
 6/7=2,8=2,9=2,10=2,28=1/1;
 7/8=1,10=1,25=1/1,2,3,16;
 1/10=4,30=1/3;
 99//99;
 ----------------------
 Trans_Acetic_acid freq
 ----------------------
 Symbolic Z-matrix:
 Charge =  0 Multiplicity = 1
 O
 H(Iso=2.014)         1    B1
 C                    1    B2       2    A1
 O                    3    B3       1    A2       2    D1       0
 C                    3    B4       1    A3       4    D2       0
 H                    5    B5       3    A4       1    D3       0
 H                    5    B6       3    A5       1    D4       0
 H                    5    B7       3    A6       1    D5       0
       Variables:
  B1                    0.96791                  
  B2                    1.3552                   
  B3                    1.20219                  
  B4                    1.50197                  
  B5                    1.0846                   
  B6                    1.08974                  
  B7                    1.08974                  
  A1                  107.01749                  
  A2                  122.33129                  
  A3                  111.61562                  
  A4                  109.64155                  
  A5                  109.81727                  
  A6                  109.81708                  
  D1                    0.                       
  D2                  180.                       
  D3                 -179.99944                  
  D4                  -58.88367                  
  D5                   58.88465                  
 

 GradGradGradGradGradGradGradGradGradGradGradGradGradGradGradGradGradGrad
 Berny optimization.
 Initialization pass.
                       ----------------------------
                       !    Initial Parameters    !
                       ! (Angstroms and Degrees)  !
 ----------------------                            ----------------------
 !      Name          Value   Derivative information (Atomic Units)     !
 ------------------------------------------------------------------------
 !       B1          0.9679   calculate D2E/DX2 analytically            !
 !       B2          1.3552   calculate D2E/DX2 analytically            !
 !       B3          1.2022   calculate D2E/DX2 analytically            !
 !       B4          1.502    calculate D2E/DX2 analytically            !
 !       B5          1.0846   calculate D2E/DX2 analytically            !
 !       B6          1.0897   calculate D2E/DX2 analytically            !
 !       B7          1.0897   calculate D2E/DX2 analytically            !
 !       A1        107.0175   calculate D2E/DX2 analytically            !
 !       A2        122.3313   calculate D2E/DX2 analytically            !
 !       A3        111.6156   calculate D2E/DX2 analytically            !
 !       A4        109.6415   calculate D2E/DX2 analytically            !
 !       A5        109.8173   calculate D2E/DX2 analytically            !
 !       A6        109.8171   calculate D2E/DX2 analytically            !
 !       D1          0.0      calculate D2E/DX2 analytically            !
 !       D2        180.0      calculate D2E/DX2 analytically            !
 !       D3       -179.9994   calculate D2E/DX2 analytically            !
 !       D4        -58.8837   calculate D2E/DX2 analytically            !
 !       D5         58.8847   calculate D2E/DX2 analytically            !
 ------------------------------------------------------------------------
 Trust Radius=3.00D-01 FncErr=1.00D-07 GrdErr=1.00D-07 EigMax=2.50D+02 EigMin=1.00D-04
 Number of steps in this run=      2 maximum allowed number of steps=      2.
 GradGradGradGradGradGradGradGradGradGradGradGradGradGradGradGradGradGrad

                          Input orientation:                          
 ---------------------------------------------------------------------
 Center     Atomic      Atomic             Coordinates (Angstroms)
 Number     Number       Type             X           Y           Z
 ---------------------------------------------------------------------
      1          8           0        0.000000    0.000000    0.000000
      2          1           0        0.000000    0.000000    0.967906
      3          6           0        1.295861    0.000000   -0.396617
      4          8           0        2.207952    0.000000    0.386555
      5          6           0        1.416268    0.000000   -1.893753
      6          1           0        2.463694   -0.000010   -2.175261
      7          1           0        0.917786   -0.877701   -2.304483
      8          1           0        0.917800    0.877711   -2.304478
 ---------------------------------------------------------------------
                    Distance matrix (angstroms):
                    1          2          3          4          5
     1  O    0.000000
     2  H    0.967906   0.000000
     3  C    1.355197   1.881801   0.000000
     4  O    2.241535   2.283204   1.202194   0.000000
     5  C    2.364765   3.192946   1.501970   2.413828   0.000000
     6  H    3.286570   3.993655   2.127770   2.574549   1.084596
     7  H    2.631222   3.510159   2.133835   3.110719   1.089744
     8  H    2.631227   3.510161   2.133832   3.110712   1.089744
                    6          7          8
     6  H    0.000000
     7  H    1.782378   0.000000
     8  H    1.782380   1.755412   0.000000
 Stoichiometry    C2H4O2
 Framework group  C1[X(C2H4O2)]
 Deg. of freedom    18
 Full point group                 C1      NOp   1
 Largest Abelian subgroup         C1      NOp   1
 Largest concise Abelian subgroup C1      NOp   1
                         Standard orientation:                         
 ---------------------------------------------------------------------
 Center     Atomic      Atomic             Coordinates (Angstroms)
 Number     Number       Type             X           Y           Z
 ---------------------------------------------------------------------
      1          8           0        0.793880   -1.030647   -0.000000
      2          1           0        1.731766   -0.791459   -0.000000
      3          6           0        0.089332    0.127011    0.000000
      4          8           0        0.622819    1.204351    0.000000
      5          6           0       -1.391125   -0.126287    0.000000
      6          1           0       -1.922741    0.819087   -0.000010
      7          1           0       -1.665932   -0.710808   -0.877701
      8          1           0       -1.665931   -0.710793    0.877711
 ---------------------------------------------------------------------
 Rotational constants (GHZ):          11.2275827           9.0030041           5.1547629
 Standard basis: 6-311++G(3df,3pd) (5D, 7F)
 There are   256 symmetry adapted cartesian basis functions of A   symmetry.
 There are   228 symmetry adapted basis functions of A   symmetry.
   228 basis functions,   316 primitive gaussians,   256 cartesian basis functions
    16 alpha electrons       16 beta electrons
       nuclear repulsion energy       121.2618966112 Hartrees.
 NAtoms=    8 NActive=    8 NUniq=    8 SFac= 1.00D+00 NAtFMM=   60 NAOKFM=F Big=F
 Integral buffers will be    131072 words long.
 Raffenetti 2 integral format.
 Two-electron integral symmetry is turned on.
 One-electron integrals computed using PRISM.
 NBasis=   228 RedAO= T EigKep=  4.56D-05  NBF=   228
 NBsUse=   228 1.00D-06 EigRej= -1.00D+00 NBFU=   228
 ExpMin= 3.60D-02 ExpMax= 8.59D+03 ExpMxC= 1.30D+03 IAcc=3 IRadAn=         5 AccDes= 0.00D+00
 Harris functional with IExCor=  402 and IRadAn=       5 diagonalized for initial guess.
 HarFok:  IExCor=  402 AccDes= 0.00D+00 IRadAn=         5 IDoV= 1 UseB2=F ITyADJ=14
 ICtDFT=  3500011 ScaDFX=  1.000000  1.000000  1.000000  1.000000
 FoFCou: FMM=F IPFlag=           0 FMFlag=      100000 FMFlg1=           0
         NFxFlg=           0 DoJE=T BraDBF=F KetDBF=T FulRan=T
         wScrn=  0.000000 ICntrl=       500 IOpCl=  0 I1Cent=   200000004 NGrid=           0
         NMat0=    1 NMatS0=      1 NMatT0=    0 NMatD0=    1 NMtDS0=    0 NMtDT0=    0
 Petite list used in FoFCou.
 Keep R1 ints in memory in canonical form, NReq=349262978.
 Requested convergence on RMS density matrix=1.00D-08 within 128 cycles.
 Requested convergence on MAX density matrix=1.00D-06.
 Requested convergence on             energy=1.00D-06.
 No special actions if energy rises.
 SCF Done:  E(RB3LYP) =  -229.181571487     A.U. after   11 cycles
            NFock= 11  Conv=0.31D-08     -V/T= 2.0039
 DoSCS=F DFT=T ScalE2(SS,OS)=  1.000000  1.000000
 Range of M.O.s used for correlation:     1   228
 NBasis=   228 NAE=    16 NBE=    16 NFC=     0 NFV=     0
 NROrb=    228 NOA=    16 NOB=    16 NVA=   212 NVB=   212

 **** Warning!!: The largest alpha MO coefficient is  0.47067241D+02

 Symmetrizing basis deriv contribution to polar:
 IMax=3 JMax=2 DiffMx= 0.00D+00
 G2DrvN: will do     9 centers at a time, making    1 passes.
 Calling FoFCou, ICntrl=  3107 FMM=F I1Cent=   0 AccDes= 0.00D+00.
 End of G2Drv F.D. properties file   721 does not exist.
 End of G2Drv F.D. properties file   722 does not exist.
 End of G2Drv F.D. properties file   788 does not exist.
          IDoAtm=11111111
          Differentiating once with respect to electric field.
                with respect to dipole field.
          Differentiating once with respect to nuclear coordinates.
 Keep R1 ints in memory in canonical form, NReq=349266922.
          There are    27 degrees of freedom in the 1st order CPHF.  IDoFFX=6 NUNeed=     3.
     24 vectors produced by pass  0 Test12= 1.26D-14 3.70D-09 XBig12= 2.88D+01 3.38D+00.
 AX will form    24 AO Fock derivatives at one time.
     24 vectors produced by pass  1 Test12= 1.26D-14 3.70D-09 XBig12= 6.57D+00 6.26D-01.
     24 vectors produced by pass  2 Test12= 1.26D-14 3.70D-09 XBig12= 4.17D-02 3.84D-02.
     24 vectors produced by pass  3 Test12= 1.26D-14 3.70D-09 XBig12= 1.63D-04 2.06D-03.
     24 vectors produced by pass  4 Test12= 1.26D-14 3.70D-09 XBig12= 3.08D-07 8.95D-05.
     20 vectors produced by pass  5 Test12= 1.26D-14 3.70D-09 XBig12= 3.63D-10 3.03D-06.
      7 vectors produced by pass  6 Test12= 1.26D-14 3.70D-09 XBig12= 7.43D-13 1.28D-07.
      2 vectors produced by pass  7 Test12= 1.26D-14 3.70D-09 XBig12= 8.60D-16 4.67D-09.
 InvSVY:  IOpt=1 It=  1 EMax= 5.33D-15
 Solved reduced A of dimension   149 with    27 vectors.
 Isotropic polarizability for W=    0.000000       34.16 Bohr**3.
 End of Minotr F.D. properties file   721 does not exist.
 End of Minotr F.D. properties file   722 does not exist.
 End of Minotr F.D. properties file   788 does not exist.

 **********************************************************************

            Population analysis using the SCF density.

 **********************************************************************

 Orbital symmetries:
       Occupied  (A) (A) (A) (A) (A) (A) (A) (A) (A) (A) (A) (A)
                 (A) (A) (A) (A)
       Virtual   (A) (A) (A) (A) (A) (A) (A) (A) (A) (A) (A) (A)
                 (A) (A) (A) (A) (A) (A) (A) (A) (A) (A) (A) (A)
                 (A) (A) (A) (A) (A) (A) (A) (A) (A) (A) (A) (A)
                 (A) (A) (A) (A) (A) (A) (A) (A) (A) (A) (A) (A)
                 (A) (A) (A) (A) (A) (A) (A) (A) (A) (A) (A) (A)
                 (A) (A) (A) (A) (A) (A) (A) (A) (A) (A) (A) (A)
                 (A) (A) (A) (A) (A) (A) (A) (A) (A) (A) (A) (A)
                 (A) (A) (A) (A) (A) (A) (A) (A) (A) (A) (A) (A)
                 (A) (A) (A) (A) (A) (A) (A) (A) (A) (A) (A) (A)
                 (A) (A) (A) (A) (A) (A) (A) (A) (A) (A) (A) (A)
                 (A) (A) (A) (A) (A) (A) (A) (A) (A) (A) (A) (A)
                 (A) (A) (A) (A) (A) (A) (A) (A) (A) (A) (A) (A)
                 (A) (A) (A) (A) (A) (A) (A) (A) (A) (A) (A) (A)
                 (A) (A) (A) (A) (A) (A) (A) (A) (A) (A) (A) (A)
                 (A) (A) (A) (A) (A) (A) (A) (A) (A) (A) (A) (A)
                 (A) (A) (A) (A) (A) (A) (A) (A) (A) (A) (A) (A)
                 (A) (A) (A) (A) (A) (A) (A) (A) (A) (A) (A) (A)
                 (A) (A) (A) (A) (A) (A) (A) (A)
 The electronic state is 1-A.
 Alpha  occ. eigenvalues --  -19.17981 -19.12242 -10.31444 -10.19013  -1.11946
 Alpha  occ. eigenvalues --   -1.03011  -0.76988  -0.62381  -0.50313  -0.49112
 Alpha  occ. eigenvalues --   -0.48207  -0.42288  -0.40900  -0.40468  -0.33782
 Alpha  occ. eigenvalues --   -0.29255
 Alpha virt. eigenvalues --   -0.01528  -0.00989   0.00754   0.03316   0.03513
 Alpha virt. eigenvalues --    0.05252   0.07241   0.08128   0.08772   0.09333
 Alpha virt. eigenvalues --    0.09809   0.11781   0.12121   0.15653   0.16575
 Alpha virt. eigenvalues --    0.17024   0.19357   0.20764   0.22519   0.23843
 Alpha virt. eigenvalues --    0.25868   0.26781   0.27067   0.27801   0.29433
 Alpha virt. eigenvalues --    0.30986   0.31722   0.31793   0.33110   0.35020
 Alpha virt. eigenvalues --    0.39583   0.43022   0.43496   0.46739   0.47643
 Alpha virt. eigenvalues --    0.51453   0.51795   0.52989   0.53679   0.54406
 Alpha virt. eigenvalues --    0.55490   0.55548   0.59656   0.61607   0.63673
 Alpha virt. eigenvalues --    0.67014   0.70909   0.71222   0.73474   0.74464
 Alpha virt. eigenvalues --    0.78548   0.79157   0.80594   0.81150   0.83286
 Alpha virt. eigenvalues --    0.83841   0.89388   0.91232   0.95042   0.95686
 Alpha virt. eigenvalues --    0.98103   1.01834   1.04626   1.04693   1.06265
 Alpha virt. eigenvalues --    1.11218   1.12286   1.13922   1.16890   1.18179
 Alpha virt. eigenvalues --    1.25203   1.26998   1.39928   1.41305   1.42603
 Alpha virt. eigenvalues --    1.49334   1.50102   1.55541   1.61914   1.64766
 Alpha virt. eigenvalues --    1.66181   1.73862   1.75471   1.76869   1.77337
 Alpha virt. eigenvalues --    1.85475   1.91578   1.92572   1.97746   2.03820
 Alpha virt. eigenvalues --    2.04370   2.09249   2.14344   2.20584   2.26862
 Alpha virt. eigenvalues --    2.34724   2.35871   2.39733   2.48651   2.50083
 Alpha virt. eigenvalues --    2.57536   2.60128   2.67898   2.70945   2.76200
 Alpha virt. eigenvalues --    2.78328   2.83264   2.86726   2.88050   2.91162
 Alpha virt. eigenvalues --    2.91929   2.94744   3.07609   3.08931   3.10670
 Alpha virt. eigenvalues --    3.11839   3.16072   3.18074   3.22055   3.23937
 Alpha virt. eigenvalues --    3.28007   3.29748   3.33574   3.37488   3.50478
 Alpha virt. eigenvalues --    3.51495   3.57317   3.57917   3.62222   3.70033
 Alpha virt. eigenvalues --    3.70792   3.81699   3.84131   3.95060   4.01547
 Alpha virt. eigenvalues --    4.02006   4.05150   4.14830   4.16999   4.19555
 Alpha virt. eigenvalues --    4.21600   4.36627   4.37170   4.45884   4.62620
 Alpha virt. eigenvalues --    4.68404   4.75590   4.80107   4.85115   4.87315
 Alpha virt. eigenvalues --    4.88861   4.92047   4.97245   5.05447   5.07116
 Alpha virt. eigenvalues --    5.11233   5.18144   5.20167   5.28628   5.30056
 Alpha virt. eigenvalues --    5.38604   5.42406   5.43002   5.56630   5.58893
 Alpha virt. eigenvalues --    5.67855   5.73171   5.94281   5.96458   6.23139
 Alpha virt. eigenvalues --    6.25462   6.32429   6.41914   6.62925   6.91023
 Alpha virt. eigenvalues --    6.99111   7.16447   7.31348   7.50216   7.62660
 Alpha virt. eigenvalues --    7.67185   7.83993   7.86733   7.96854   8.20119
 Alpha virt. eigenvalues --    8.28098   8.31480   8.43364   8.44688   8.46077
 Alpha virt. eigenvalues --    8.56260   8.64822   8.67179   8.72149   9.44237
 Alpha virt. eigenvalues --    9.60149   9.77823   9.81003  14.37191  14.39178
 Alpha virt. eigenvalues --   14.42243  14.51518  14.59866  14.68710  14.78680
 Alpha virt. eigenvalues --   14.96817  15.06447  15.41181  25.09689  26.17614
 Alpha virt. eigenvalues --   50.42566  50.56439
          Condensed to atoms (all electrons):
               1          2          3          4          5          6
     1  O    8.788626   0.181950   0.137462  -0.169600  -0.224641   0.014591
     2  H    0.181950   0.388799  -0.043729   0.005393   0.000334  -0.000085
     3  C    0.137462  -0.043729   4.870988   0.245130  -0.067272  -0.052062
     4  O   -0.169600   0.005393   0.245130   8.720402  -0.100789  -0.001634
     5  C   -0.224641   0.000334  -0.067272  -0.100789   5.458467   0.376932
     6  H    0.014591  -0.000085  -0.052062  -0.001634   0.376932   0.695233
     7  H    0.000134  -0.000573  -0.083952   0.004254   0.417582  -0.035956
     8  H    0.000135  -0.000573  -0.083952   0.004253   0.417581  -0.035955
               7          8
     1  O    0.000134   0.000135
     2  H   -0.000573  -0.000573
     3  C   -0.083952  -0.083952
     4  O    0.004254   0.004253
     5  C    0.417582   0.417581
     6  H   -0.035956  -0.035955
     7  H    0.679306  -0.045522
     8  H   -0.045522   0.679305
 Mulliken charges:
               1
     1  O   -0.728658
     2  H    0.468483
     3  C    1.077387
     4  O   -0.707409
     5  C   -0.278193
     6  H    0.038936
     7  H    0.064727
     8  H    0.064727
 Sum of Mulliken charges =  -0.00000
 Mulliken charges with hydrogens summed into heavy atoms:
               1
     1  O   -0.260175
     3  C    1.077387
     4  O   -0.707409
     5  C   -0.109803
 APT charges:
               1
     1  O   -0.700796
     2  H    0.277569
     3  C    1.151272
     4  O   -0.752246
     5  C   -0.064858
     6  H    0.028576
     7  H    0.030241
     8  H    0.030242
 Sum of APT charges =   0.00000
 APT charges with hydrogens summed into heavy atoms:
               1
     1  O   -0.423227
     3  C    1.151272
     4  O   -0.752246
     5  C    0.024201
 Electronic spatial extent (au):  <R**2>=            253.8009
 Charge=             -0.0000 electrons
 Dipole moment (field-independent basis, Debye):
    X=             -0.7941    Y=             -1.5942    Z=              0.0000  Tot=              1.7811
 Quadrupole moment (field-independent basis, Debye-Ang):
   XX=            -19.3031   YY=            -28.8081   ZZ=            -23.3504
   XY=             -2.1798   XZ=              0.0000   YZ=             -0.0000
 Traceless Quadrupole moment (field-independent basis, Debye-Ang):
   XX=              4.5174   YY=             -4.9876   ZZ=              0.4701
   XY=             -2.1798   XZ=              0.0000   YZ=             -0.0000
 Octapole moment (field-independent basis, Debye-Ang**2):
  XXX=             11.5680  YYY=             -2.1514  ZZZ=              0.0000  XYY=             -1.5983
  XXY=             -4.6420  XXZ=             -0.0000  XZZ=              0.7636  YZZ=             -0.6285
  YYZ=             -0.0000  XYZ=              0.0000
 Hexadecapole moment (field-independent basis, Debye-Ang**3):
 XXXX=           -149.7859 YYYY=           -129.3665 ZZZZ=            -28.4311 XXXY=            -12.1616
 XXXZ=              0.0000 YYYX=             -3.9461 YYYZ=              0.0000 ZZZX=             -0.0000
 ZZZY=             -0.0000 XXYY=            -44.9811 XXZZ=            -31.8785 YYZZ=            -24.8009
 XXYZ=             -0.0000 YYXZ=              0.0000 ZZXY=              1.2008
 N-N= 1.212618966112D+02 E-N=-7.806175980064D+02  KE= 2.282926545887D+02
  Exact polarizability:  38.898   0.817  37.238  -0.000  -0.000  26.338
 Approx polarizability:  48.271   2.824  55.904  -0.000  -0.000  36.749
 Calling FoFJK, ICntrl=    100127 FMM=F ISym2X=0 I1Cent= 0 IOpClX= 0 NMat=1 NMatS=1 NMatT=0.
 Full mass-weighted force constant matrix:
 Low frequencies ---   -3.0898   -2.3085   -0.0008    0.0009    0.0010    2.8673
 Low frequencies ---   79.5361  418.0185  435.7238
 Diagonal vibrational polarizability:
        6.4108463       7.7698168       8.8347854
 Harmonic frequencies (cm**-1), IR intensities (KM/Mole), Raman scattering
 activities (A**4/AMU), depolarization ratios for plane and unpolarized
 incident light, reduced masses (AMU), force constants (mDyne/A),
 and normal coordinates:
                      1                      2                      3
                      A                      A                      A
 Frequencies --     79.5339               418.0185               435.7238
 Red. masses --      1.0858                 2.9341                 2.1432
 Frc consts  --      0.0040                 0.3021                 0.2397
 IR Inten    --      0.1734                 6.3899                44.4448
  Atom  AN      X      Y      Z        X      Y      Z        X      Y      Z
     1   8    -0.00   0.00   0.05     0.21  -0.02   0.00     0.00  -0.00  -0.09
     2   1    -0.00  -0.00  -0.01     0.14   0.30  -0.00     0.00   0.00   0.91
     3   6    -0.00   0.00   0.01    -0.02  -0.16   0.00    -0.00  -0.00  -0.12
     4   8     0.00   0.00  -0.05    -0.13  -0.10  -0.00    -0.00  -0.00   0.00
     5   6     0.00  -0.00   0.00    -0.08   0.18  -0.00    -0.00   0.00   0.05
     6   1    -0.00   0.00   0.53     0.34   0.42   0.00     0.00   0.00   0.22
     7   1    -0.04   0.50  -0.32    -0.35   0.33  -0.01    -0.21   0.03   0.09
     8   1     0.04  -0.50  -0.32    -0.35   0.33   0.01     0.21  -0.03   0.09
                      4                      5                      6
                      A                      A                      A
 Frequencies --    550.6445               616.7916               809.8477
 Red. masses --      4.3503                 2.7078                 3.3489
 Frc consts  --      0.7772                 0.6069                 1.2941
 IR Inten    --     38.5339                21.4945                 1.6576
  Atom  AN      X      Y      Z        X      Y      Z        X      Y      Z
     1   8     0.02   0.17  -0.00     0.00  -0.00  -0.14    -0.14   0.04  -0.00
     2   1    -0.12   0.75   0.00     0.00  -0.00   0.31    -0.28   0.60  -0.00
     3   6    -0.13   0.01   0.00     0.00  -0.00   0.31    -0.07  -0.08   0.00
     4   8     0.28  -0.18  -0.00    -0.00   0.00  -0.12    -0.08  -0.10  -0.00
     5   6    -0.20  -0.08   0.00     0.00   0.00   0.04     0.32   0.06  -0.00
     6   1    -0.37  -0.17  -0.00     0.00  -0.00  -0.31     0.34   0.06  -0.00
     7   1    -0.11  -0.13   0.00     0.55   0.06  -0.18     0.38   0.02   0.01
     8   1    -0.11  -0.13  -0.00    -0.55  -0.06  -0.18     0.38   0.02  -0.01
                      7                      8                      9
                      A                      A                      A
 Frequencies --    971.4272              1062.3297              1070.2977
 Red. masses --      2.5162                 2.2185                 1.8164
 Frc consts  --      1.3990                 1.4751                 1.2260
 IR Inten    --     96.5294                 8.3070                 7.0555
  Atom  AN      X      Y      Z        X      Y      Z        X      Y      Z
     1   8    -0.07   0.24  -0.00    -0.05  -0.13  -0.00     0.00   0.00  -0.03
     2   1     0.07  -0.39   0.00    -0.18   0.44   0.00     0.00  -0.00   0.00
     3   6     0.04  -0.07   0.00     0.08   0.02   0.00    -0.00  -0.00   0.20
     4   8     0.01  -0.07  -0.00     0.04   0.14  -0.00    -0.00  -0.00  -0.04
     5   6     0.04  -0.14  -0.00    -0.01  -0.16  -0.00     0.00   0.00  -0.17
     6   1     0.63   0.21   0.00     0.52   0.16   0.00    -0.00  -0.00   0.37
     7   1    -0.35   0.15  -0.06    -0.41   0.16  -0.08    -0.58  -0.18   0.15
     8   1    -0.35   0.15   0.06    -0.41   0.16   0.08     0.58   0.18   0.15
                     10                     11                     12
                      A                      A                      A
 Frequencies --   1285.9796              1405.6899              1472.8019
 Red. masses --      3.8894                 1.3728                 1.0511
 Frc consts  --      3.7897                 1.5983                 1.3433
 IR Inten    --    190.3237                44.7449                16.2690
  Atom  AN      X      Y      Z        X      Y      Z        X      Y      Z
     1   8    -0.11   0.08   0.00    -0.02   0.01  -0.00    -0.00   0.00   0.00
     2   1    -0.13   0.20   0.00    -0.02   0.03  -0.00    -0.00   0.01   0.00
     3   6     0.39  -0.24   0.00     0.07  -0.04   0.00     0.03  -0.00  -0.00
     4   8    -0.05   0.04   0.00    -0.01   0.01  -0.00    -0.01  -0.02   0.00
     5   6    -0.07   0.09  -0.00    -0.16  -0.02   0.00     0.02  -0.04  -0.00
     6   1    -0.64  -0.23  -0.00     0.39   0.28  -0.00    -0.39  -0.26   0.00
     7   1    -0.16  -0.21   0.21     0.56   0.02  -0.24     0.03   0.51  -0.36
     8   1    -0.16  -0.21  -0.21     0.56   0.02   0.24     0.03   0.51   0.36
                     13                     14                     15
                      A                      A                      A
 Frequencies --   1478.4739              1811.6060              2729.9821
 Red. masses --      1.0452                11.1350                 2.2288
 Frc consts  --      1.3461                21.5312                 9.7868
 IR Inten    --      8.2590               328.7012                38.1885
  Atom  AN      X      Y      Z        X      Y      Z        X      Y      Z
     1   8     0.00  -0.00   0.00    -0.02  -0.04  -0.00    -0.12  -0.03   0.00
     2   1     0.00  -0.00   0.00    -0.08   0.17   0.00     0.97   0.23  -0.00
     3   6    -0.00  -0.00  -0.03     0.40   0.65  -0.00    -0.00   0.00  -0.00
     4   8     0.00   0.00   0.00    -0.22  -0.43  -0.00    -0.00  -0.00  -0.00
     5   6    -0.00   0.00  -0.05    -0.06  -0.04  -0.00     0.00  -0.00   0.00
     6   1     0.00   0.00   0.72     0.22   0.15  -0.00     0.00  -0.00   0.00
     7   1     0.37  -0.31   0.05    -0.12  -0.11   0.08     0.00   0.00   0.01
     8   1    -0.37   0.31   0.05    -0.12  -0.11  -0.08     0.00   0.00  -0.01
                     16                     17                     18
                      A                      A                      A
 Frequencies --   3053.6280              3111.3546              3163.7781
 Red. masses --      1.0370                 1.0996                 1.1028
 Frc consts  --      5.6970                 6.2715                 6.5034
 IR Inten    --      1.6762                 3.3664                 4.1809
  Atom  AN      X      Y      Z        X      Y      Z        X      Y      Z
     1   8     0.00   0.00   0.00    -0.00   0.00   0.00    -0.00   0.00   0.00
     2   1    -0.00  -0.00   0.00     0.00   0.00   0.00    -0.00  -0.00   0.00
     3   6     0.00  -0.00   0.00     0.00  -0.00  -0.00    -0.00  -0.00   0.00
     4   8     0.00   0.00  -0.00    -0.00   0.00  -0.00     0.00   0.00  -0.00
     5   6    -0.04  -0.03  -0.00     0.00  -0.00  -0.09     0.03  -0.09   0.00
     6   1     0.19  -0.36   0.00    -0.00   0.00  -0.02    -0.45   0.80  -0.00
     7   1     0.16   0.34   0.53     0.18   0.39   0.56     0.07   0.14   0.23
     8   1     0.16   0.34  -0.53    -0.18  -0.39   0.56     0.07   0.14  -0.23

 -------------------
 - Thermochemistry -
 -------------------
 Temperature   298.150 Kelvin.  Pressure   1.00000 Atm.
 Atom     1 has atomic number  8 and mass  15.99491
 Atom     2 has atomic number  1 and mass   2.01400
 Atom     3 has atomic number  6 and mass  12.00000
 Atom     4 has atomic number  8 and mass  15.99491
 Atom     5 has atomic number  6 and mass  12.00000
 Atom     6 has atomic number  1 and mass   1.00783
 Atom     7 has atomic number  1 and mass   1.00783
 Atom     8 has atomic number  1 and mass   1.00783
 Molecular mass:    61.02730 amu.
 Principal axes and moments of inertia in atomic units:
                           1         2         3
     Eigenvalues --   160.74174 200.45989 350.11139
           X            0.99701   0.07722   0.00000
           Y           -0.07722   0.99701  -0.00000
           Z           -0.00000   0.00000   1.00000
 This molecule is an asymmetric top.
 Rotational symmetry number  1.
 Rotational temperatures (Kelvin)      0.53884     0.43208     0.24739
 Rotational constants (GHZ):          11.22758     9.00300     5.15476
 Zero-point vibrational energy     152690.8 (Joules/Mol)
                                   36.49398 (Kcal/Mol)
 Warning -- explicit consideration of   5 degrees of freedom as
           vibrations may cause significant error
 Vibrational temperatures:    114.43   601.44   626.91   792.25   887.43
          (Kelvin)           1165.19  1397.67  1528.46  1539.92  1850.24
                             2022.47  2119.03  2127.19  2606.50  3927.84
                             4393.49  4476.55  4551.97
 
 Zero-point correction=                           0.058157 (Hartree/Particle)
 Thermal correction to Energy=                    0.062878
 Thermal correction to Enthalpy=                  0.063822
 Thermal correction to Gibbs Free Energy=         0.030889
 Sum of electronic and zero-point Energies=           -229.123415
 Sum of electronic and thermal Energies=              -229.118694
 Sum of electronic and thermal Enthalpies=            -229.117750
 Sum of electronic and thermal Free Energies=         -229.150682
 
                     E (Thermal)             CV                S
                      KCal/Mol        Cal/Mol-Kelvin    Cal/Mol-Kelvin
 Total                   39.456             14.994             69.313
 Electronic               0.000              0.000              0.000
 Translational            0.889              2.981             38.246
 Rotational               0.889              2.981             23.938
 Vibrational             37.679              9.033              7.129
 Vibration     1          0.600              1.963              3.902
 Vibration     2          0.781              1.431              0.899
 Vibration     3          0.796              1.392              0.840
 Vibration     4          0.906              1.138              0.543
 Vibration     5          0.976              0.996              0.422
                       Q            Log10(Q)             Ln(Q)
 Total Bot       0.619405D-14        -14.208025        -32.715188
 Total V=0       0.348536D+13         12.542247         28.879592
 Vib (Bot)       0.869376D-26        -26.060792        -60.007192
 Vib (Bot)    1  0.258957D+01          0.413227          0.951490
 Vib (Bot)    2  0.420686D+00         -0.376042         -0.865868
 Vib (Bot)    3  0.398091D+00         -0.400018         -0.921075
 Vib (Bot)    4  0.284821D+00         -0.545428         -1.255894
 Vib (Bot)    5  0.237901D+00         -0.623604         -1.435901
 Vib (V=0)       0.489193D+01          0.689480          1.587587
 Vib (V=0)    1  0.313739D+01          0.496569          1.143393
 Vib (V=0)    2  0.115343D+01          0.061993          0.142744
 Vib (V=0)    3  0.113912D+01          0.056570          0.130257
 Vib (V=0)    4  0.107543D+01          0.031583          0.072723
 Vib (V=0)    5  0.105371D+01          0.022722          0.052319
 Electronic      0.100000D+01          0.000000          0.000000
 Translational   0.187387D+08          7.272740         16.746103
 Rotational      0.380213D+05          4.580027         10.545901
 ***** Axes restored to original set *****
 -------------------------------------------------------------------
 Center     Atomic                   Forces (Hartrees/Bohr)
 Number     Number              X              Y              Z
 -------------------------------------------------------------------
      1        8           0.000002410    0.000000025   -0.000000657
      2        1          -0.000000408    0.000000021    0.000000653
      3        6           0.000000075   -0.000000231    0.000002082
      4        8          -0.000002320    0.000000036   -0.000001819
      5        6           0.000001040   -0.000000270   -0.000000299
      6        1          -0.000000772    0.000000247    0.000000420
      7        1          -0.000000105   -0.000000049   -0.000000020
      8        1           0.000000080    0.000000222   -0.000000358
 -------------------------------------------------------------------
 Cartesian Forces:  Max     0.000002410 RMS     0.000000962
 -----------------------------------------------------------------------------------------------
                       Internal Coordinate Forces (Hartree/Bohr or radian)
  Cent   Atom   N1       Length/X         N2         Alpha/Y        N3         Beta/Z          J
 -----------------------------------------------------------------------------------------------
      1  O 
      2  H        1   0.000001(     1)
      3  C        1  -0.000002(     2)      2  -0.000000(     8)
      4  O        3  -0.000003(     3)      1  -0.000000(     9)      2   0.000000(    14)     0
      5  C        3   0.000000(     4)      1   0.000001(    10)      4   0.000000(    15)     0
      6  H        5  -0.000001(     5)      3  -0.000000(    11)      1  -0.000000(    16)     0
      7  H        5   0.000000(     6)      3  -0.000000(    12)      1   0.000000(    17)     0
      8  H        5   0.000000(     7)      3   0.000001(    13)      1   0.000000(    18)     0
 -----------------------------------------------------------------------------------------------
 Internal  Forces:  Max     0.000002946 RMS     0.000000960

 GradGradGradGradGradGradGradGradGradGradGradGradGradGradGradGradGradGrad
 Berny optimization.
 Search for a local minimum.
 Step number   1 out of a maximum of    2
 All quantities printed in internal units (Hartrees-Bohrs-Radians)
 Second derivative matrix not updated -- analytic derivatives used.
 The second derivative matrix:
                          B1        B2        B3        B4        B5
           B1           0.50692
           B2           0.01197   0.37369
           B3          -0.00598   0.09289   0.85179
           B4          -0.00230   0.02744   0.03741   0.28759
           B5           0.00011   0.00040   0.00079   0.00173   0.35060
           B6           0.00020   0.00021  -0.00053   0.00453   0.00208
           B7           0.00020   0.00021  -0.00053   0.00453   0.00208
           A1           0.02682   0.03422   0.00441   0.00431   0.00075
           A2          -0.01400   0.06521   0.02872  -0.04291   0.00627
           A3           0.00556   0.07433  -0.06359   0.01311   0.01305
           A4           0.00155   0.01135  -0.00236   0.03067   0.00006
           A5          -0.00084   0.00130   0.00789   0.02699  -0.00754
           A6          -0.00084   0.00130   0.00789   0.02699  -0.00754
           D1          -0.00000   0.00000  -0.00000   0.00000  -0.00000
           D2          -0.00000   0.00000   0.00000   0.00000  -0.00000
           D3          -0.00000  -0.00000   0.00000  -0.00000  -0.00000
           D4           0.00047  -0.00231   0.00071   0.00614   0.01214
           D5          -0.00047   0.00231  -0.00071  -0.00614  -0.01214
                          B6        B7        A1        A2        A3
           B6           0.33903
           B7           0.00285   0.33903
           A1           0.00009   0.00009   0.17150
           A2          -0.00515  -0.00515  -0.03375   0.54041
           A3          -0.00798  -0.00798   0.02523   0.19992   0.43129
           A4          -0.00743  -0.00743   0.00650   0.01381   0.04597
           A5           0.00058  -0.00864  -0.00109  -0.01983  -0.02317
           A6          -0.00864   0.00058  -0.00109  -0.01983  -0.02317
           D1          -0.00087   0.00087   0.00000  -0.00000   0.00000
           D2          -0.00256   0.00256  -0.00000  -0.00000  -0.00000
           D3          -0.01338   0.01338  -0.00000  -0.00000  -0.00000
           D4           0.00005  -0.01505  -0.00021  -0.00665  -0.00964
           D5           0.01505  -0.00005   0.00021   0.00665   0.00964
                          A4        A5        A6        D1        D2
           A4           0.21588
           A5           0.02824   0.20385
           A6           0.02824   0.03190   0.20385
           D1          -0.00000  -0.00225   0.00225   0.04046
           D2          -0.00000  -0.02047   0.02047   0.02018   0.11361
           D3          -0.00000   0.05346  -0.05346  -0.00301  -0.00083
           D4          -0.05330  -0.00249   0.05490  -0.00002  -0.00168
           D5           0.05330  -0.05490   0.00249  -0.00002  -0.00168
                          D3        D4        D5
           D3           0.17165
           D4          -0.07982   0.16238
           D5          -0.07982  -0.08621   0.16238
 ITU=  0
     Eigenvalues ---    0.00088   0.03490   0.08813   0.11318   0.13529
     Eigenvalues ---    0.15114   0.21768   0.25515   0.29959   0.30625
     Eigenvalues ---    0.31223   0.34458   0.34735   0.35515   0.38409
     Eigenvalues ---    0.51237   0.72916   0.87879
 Angle between quadratic step and forces=  63.68 degrees.
 Linear search not attempted -- first point.
 Variable       Old X    -DE/DX   Delta X   Delta X   Delta X     New X
                                 (Linear)    (Quad)   (Total)
    B1        1.82908   0.00000   0.00000   0.00000   0.00000   1.82908
    B2        2.56095  -0.00000   0.00000  -0.00001  -0.00001   2.56095
    B3        2.27182  -0.00000   0.00000  -0.00000  -0.00000   2.27181
    B4        2.83831   0.00000   0.00000   0.00000   0.00000   2.83831
    B5        2.04959  -0.00000   0.00000  -0.00000  -0.00000   2.04959
    B6        2.05932   0.00000   0.00000   0.00000   0.00000   2.05932
    B7        2.05932   0.00000   0.00000   0.00000   0.00000   2.05932
    A1        1.86781  -0.00000   0.00000  -0.00000  -0.00000   1.86781
    A2        2.13508  -0.00000   0.00000  -0.00000  -0.00000   2.13508
    A3        1.94806   0.00000   0.00000   0.00001   0.00001   1.94807
    A4        1.91361  -0.00000   0.00000  -0.00000  -0.00000   1.91360
    A5        1.91667  -0.00000   0.00000   0.00000   0.00000   1.91667
    A6        1.91667   0.00000   0.00000   0.00000   0.00000   1.91667
    D1        0.00000   0.00000   0.00000   0.00000   0.00000   0.00000
    D2        3.14159   0.00000   0.00000  -0.00000  -0.00000   3.14159
    D3       -3.14158  -0.00000   0.00000  -0.00001  -0.00001  -3.14159
    D4       -1.02771   0.00000   0.00000  -0.00001  -0.00001  -1.02772
    D5        1.02773   0.00000   0.00000  -0.00001  -0.00001   1.02772
         Item               Value     Threshold  Converged?
 Maximum Force            0.000003     0.000450     YES
 RMS     Force            0.000001     0.000300     YES
 Maximum Displacement     0.000010     0.001800     YES
 RMS     Displacement     0.000004     0.001200     YES
 Predicted change in Energy=-1.701056D-11
 Optimization completed.
    -- Stationary point found.
                       ----------------------------
                       !   Optimized Parameters   !
                       ! (Angstroms and Degrees)  !
 ----------------------                            ----------------------
 !      Name          Value   Derivative information (Atomic Units)     !
 ------------------------------------------------------------------------
 !       B1          0.9679   -DE/DX =    0.0                           !
 !       B2          1.3552   -DE/DX =    0.0                           !
 !       B3          1.2022   -DE/DX =    0.0                           !
 !       B4          1.502    -DE/DX =    0.0                           !
 !       B5          1.0846   -DE/DX =    0.0                           !
 !       B6          1.0897   -DE/DX =    0.0                           !
 !       B7          1.0897   -DE/DX =    0.0                           !
 !       A1        107.0175   -DE/DX =    0.0                           !
 !       A2        122.3313   -DE/DX =    0.0                           !
 !       A3        111.6156   -DE/DX =    0.0                           !
 !       A4        109.6415   -DE/DX =    0.0                           !
 !       A5        109.8173   -DE/DX =    0.0                           !
 !       A6        109.8171   -DE/DX =    0.0                           !
 !       D1          0.0      -DE/DX =    0.0                           !
 !       D2        180.0      -DE/DX =    0.0                           !
 !       D3       -179.9994   -DE/DX =    0.0                           !
 !       D4        -58.8837   -DE/DX =    0.0                           !
 !       D5         58.8847   -DE/DX =    0.0                           !
 ------------------------------------------------------------------------
 GradGradGradGradGradGradGradGradGradGradGradGradGradGradGradGradGradGrad


 ----------------------------------------------------------------------

 Electric dipole moment (input orientation):
 (Debye = 10**-18 statcoulomb cm , SI units = C m)
                  (au)            (Debye)         (10**-30 SI)
   Tot        0.700719D+00      0.178105D+01      0.594095D+01
   x         -0.530558D+00     -0.134854D+01     -0.449826D+01
   y          0.000000D+00      0.000000D+00      0.000000D+00
   z         -0.457729D+00     -0.116343D+01     -0.388079D+01

 Dipole polarizability, Alpha (input orientation).
 (esu units = cm**3 , SI units = C**2 m**2 J**-1)
 Alpha(0;0):
               (au)            (10**-24 esu)      (10**-40 SI)
   iso        0.341579D+02      0.506169D+01      0.563188D+01
   aniso      0.119017D+02      0.176366D+01      0.196233D+01
   xx         0.369484D+02      0.547519D+01      0.609197D+01
   yx         0.000000D+00      0.000000D+00      0.000000D+00
   yy         0.263381D+02      0.390291D+01      0.434257D+01
   zx         0.319542D+00      0.473513D-01      0.526854D-01
   zy         0.000000D+00      0.000000D+00      0.000000D+00
   zz         0.391873D+02      0.580696D+01      0.646111D+01

 ----------------------------------------------------------------------

 Dipole orientation:
     8         -0.00000000          0.00000000          0.00000000
     1         -1.38490658         -0.00000019         -1.19480287
     6          2.16712849         -0.00000003         -1.36456173
     8          2.17244832         -0.00000027         -3.63637247
     6          4.45790573          0.00000024          0.31125164
     1          6.15365969          0.00001910         -0.83993555
     1          4.43025338          1.65861487          1.53150773
     1          4.43026448         -1.65863305          1.53148186

 Electric dipole moment (dipole orientation):
 (Debye = 10**-18 statcoulomb cm , SI units = C m)
                  (au)            (Debye)         (10**-30 SI)
   Tot        0.700719D+00      0.178105D+01      0.594095D+01
   x          0.000000D+00      0.000000D+00      0.000000D+00
   y          0.000000D+00      0.000000D+00      0.000000D+00
   z          0.700719D+00      0.178105D+01      0.594095D+01

 Dipole polarizability, Alpha (dipole orientation).
 (esu units = cm**3 , SI units = C**2 m**2 J**-1)
 Alpha(0;0):
               (au)            (10**-24 esu)      (10**-40 SI)
   iso        0.341579D+02      0.506169D+01      0.563188D+01
   aniso      0.119017D+02      0.176366D+01      0.196233D+01
   xx         0.379158D+02      0.561855D+01      0.625148D+01
   yx         0.000000D+00      0.000000D+00      0.000000D+00
   yy         0.263381D+02      0.390291D+01      0.434257D+01
   zx         0.115418D+01      0.171032D+00      0.190299D+00
   zy         0.000000D+00      0.000000D+00      0.000000D+00
   zz         0.382198D+02      0.566360D+01      0.630160D+01

 ----------------------------------------------------------------------
 1\1\GINC-AQ89\Freq\RB3LYP\6-311++G(3df,3pd)\C2H4O2\PRAKTIKUM\08-Nov-20
 24\1\\# freq b3lyp/6-311++g(3df,3pd) int=ultrafine scf=verytight\\Tran
 s_Acetic_acid freq\\0,1\O\H,1,B1\C,1,B2,2,A1\O,3,B3,1,A2,2,D1,0\C,3,B4
 ,1,A3,4,D2,0\H,5,B5,3,A4,1,D3,0\H,5,B6,3,A5,1,D4,0\H,5,B7,3,A6,1,D5,0\
 \B1=0.9679055\B2=1.35519738\B3=1.20219377\B4=1.50196964\B5=1.08459558\
 B6=1.08974434\B7=1.0897441\A1=107.01749324\A2=122.33129155\A3=111.6156
 1663\A4=109.64154941\A5=109.8172745\A6=109.81708265\D1=0.\D2=180.\D3=-
 179.99943909\D4=-58.88366649\D5=58.88465464\\Version=AS64L-G16RevA.03\
 State=1-A\HF=-229.1815715\RMSD=3.053e-09\RMSF=9.617e-07\ZeroPoint=0.05
 81569\Thermal=0.0628776\Dipole=-0.5305579,0.,-0.4577291\DipoleDeriv=-1
 .2347272,-0.0000002,0.2362172,0.0000002,-0.3594496,0.,0.4121475,0.,-0.
 5082119,0.2938968,0.,-0.0788888,-0.0000001,0.3256219,0.,-0.0543531,0.,
 0.2131896,1.8473463,0.,0.0104155,-0.0000001,0.2464936,-0.0000003,0.061
 9335,-0.0000003,1.3599766,-1.012069,0.,-0.1655484,0.,-0.3595116,0.,-0.
 4169516,0.,-0.8851569,0.0332458,0.0000002,-0.0581606,0.0000002,0.06956
 27,0.0000026,0.0018777,0.0000009,-0.2973835,-0.0451582,0.0000009,0.052
 2722,0.0000013,0.0869154,-0.0000009,0.0060274,0.,0.0439714,0.0587316,-
 0.0627836,0.0018458,-0.059499,-0.0048152,-0.0540475,-0.0053411,-0.0125
 514,0.0368071,0.0587339,0.0627824,0.001847,0.0594975,-0.004817,0.05404
 63,-0.0053403,0.0125508,0.0368077\Polar=36.9484114,-0.0000028,26.33814
 68,0.3195423,-0.0000003,39.1872785\Quadrupole=-2.5004379,0.3495246,2.1
 509133,-0.0000036,-3.1148613,0.0000014\PG=C01 [X(C2H4O2)]\NImag=0\\0.3
 8775566,0.,0.03860773,-0.03783011,0.00000002,0.62683464,-0.04779763,-0
 .00000001,-0.03787458,0.05129641,-0.00000001,-0.01635055,0.00000001,0.
 ,0.01322592,0.00852733,0.,-0.48609646,-0.01467140,0.,0.50691728,-0.220
 36648,0.,0.05871385,-0.00049933,0.,0.01197865,0.75566762,0.00000003,-0
 .06514245,0.,0.,0.00399020,0.,-0.00000005,0.23277410,0.03472338,0.,-0.
 14742318,0.05842126,0.,-0.02412498,0.20688401,-0.00000005,0.79186760,-
 0.10862159,0.,-0.03031950,0.00346983,0.,-0.00855402,-0.44691763,-0.000
 00002,-0.31271714,0.54723179,0.,0.02972643,0.,0.,-0.00604068,0.,0.,-0.
 07905647,-0.00000005,0.00000001,0.03085986,-0.02158199,0.,0.03584442,-
 0.00771889,0.,0.00077563,-0.29729310,-0.00000004,-0.40378320,0.3673316
 7,0.00000005,0.40926370,-0.01053803,-0.00000003,0.04362372,-0.00660541
 ,-0.00000002,0.00361320,-0.08216858,-0.00000002,0.01927808,-0.00020294
 ,0.00000008,-0.03923028,0.61072522,-0.00000004,0.01112793,-0.00000005,
 0.00000001,0.00384526,-0.00000003,0.,-0.09219354,-0.00000016,0.0000000
 6,0.02681880,-0.00000003,-0.00000098,0.53137836,0.01271041,0.,-0.02222
 543,0.00056010,-0.00000002,0.00272084,0.02119373,-0.00000004,-0.189258
 13,-0.01534375,0.00000002,-0.03363161,-0.00587277,0.00000054,0.4735633
 9,0.00122852,0.00000002,0.00067261,0.00005172,0.,-0.00009468,-0.003891
 45,-0.00000003,-0.00210170,0.00204386,-0.00000002,-0.00074409,-0.30825
 443,0.00000243,0.07108171,0.33043233,-0.00000001,0.00131634,0.00000003
 ,0.,0.00088979,0.00000001,-0.00000005,-0.00274739,0.00000008,-0.000000
 03,-0.00058929,-0.00000002,0.00000244,-0.04802696,-0.00000069,-0.00000
 256,0.04606663,0.00112150,0.,-0.00836697,0.00178594,0.00000001,-0.0007
 5927,0.03557710,-0.00000031,-0.00616670,-0.00164524,0.00000004,0.00330
 593,0.06299960,-0.00000061,-0.06596298,-0.07502363,0.00000069,0.071560
 41,-0.00083021,-0.00050132,0.00150701,0.00004220,0.00007447,-0.0003995
 4,-0.00091206,0.00459320,-0.00224392,0.00149836,-0.00036866,-0.0003816
 5,-0.10147959,-0.10062388,-0.04216560,-0.01080554,-0.02474636,-0.01240
 765,0.10567121,0.00049924,0.00035728,0.00024571,0.00015739,0.00022003,
 -0.00015076,-0.00025788,0.00118780,0.00056580,0.00119328,-0.00085932,0
 .00126990,-0.09965129,-0.21647275,-0.08239871,0.00102001,0.00154561,0.
 00187270,0.10930616,0.23519032,0.00116474,0.00232729,0.00071651,-0.000
 25121,0.00076301,0.00028349,-0.01852738,-0.03193998,-0.01055565,0.0006
 2400,0.00461992,-0.00588751,-0.04220660,-0.08348562,-0.08260346,0.0031
 0497,0.00834531,0.00319482,0.04950165,0.08898282,0.08949900,-0.0008302
 3,0.00050134,0.00150700,0.00004220,-0.00007445,-0.00039954,-0.00091208
 ,-0.00459312,-0.00224396,0.00149832,0.00036860,-0.00038167,-0.10147625
 ,0.10062240,-0.04216384,-0.01080501,0.02474657,-0.01240761,0.00681563,
 -0.01226691,0.00658984,0.10566743,-0.00049920,0.00035728,-0.00024572,-
 0.00015739,0.00022003,0.00015077,0.00025797,0.00118776,-0.00056562,-0.
 00119330,-0.00085933,-0.00126987,0.09964983,-0.21647710,0.08239891,-0.
 00101986,0.00154526,-0.00187253,0.01226639,-0.02116896,0.01038725,-0.1
 0930443,0.23519505,0.00116473,-0.00232731,0.00071647,-0.00025120,-0.00
 076302,0.00028347,-0.01852686,0.03194044,-0.01055577,0.00062398,-0.004
 62000,-0.00588737,-0.04220494,0.08348595,-0.08260263,0.00310481,-0.008
 34541,0.00319476,0.00658969,-0.01038746,0.00535280,0.04949979,-0.08898
 319,0.08949826\\-0.00000241,-0.00000002,0.00000066,0.00000041,-0.00000
 002,-0.00000065,-0.00000008,0.00000023,-0.00000208,0.00000232,-0.00000
 004,0.00000182,-0.00000104,0.00000027,0.00000030,0.00000077,-0.0000002
 5,-0.00000042,0.00000011,0.00000005,0.00000002,-0.00000008,-0.00000022
 ,0.00000036\\\@


 WE THE UNWILLING
 LED BY THE UNQUALIFIED
 HAVE BEEN DOING THE UNBELIEVABLE SO LONG WITH SO LITTLE
 THAT WE NOW ATTEMPT THE IMPOSSIBLE WITH NOTHING.

                                    -- ANONYMOUS
 Job cpu time:       0 days  0 hours 11 minutes 14.7 seconds.
 Elapsed time:       0 days  0 hours  1 minutes 54.4 seconds.
 File lengths (MBytes):  RWF=     40 Int=      0 D2E=      0 Chk=      5 Scr=      1
 Normal termination of Gaussian 16 at Fri Nov  8 10:44:03 2024.
