[Molden Format]
[Molpro variables]
_NUMVAR=  1094.000000000000    
_AVOGAD= 0.6022140760000000E+24
_BOLTZ= 0.1380649000000000E-22
_CLIGHTSI=  299792458.0000000    
_JOULE= 0.4359744722207100E-17
_JPCAL=  4.184000000000000    
_PLANCK= 0.6626070150000000E-33
_BOHR= 0.5291772109030000E-10
_ECHARG= 0.1602176634000000E-18
_ENULL= 0.8854187812800001E-11
_MU= 0.1660539066600000E-26
_EMASS= 0.9109383701500001E-30
_AMU2AU=  1822.888486217313    
_CLIGHT=  29979245800.00000    
_EV= 0.3674932217565494E-01
_KJOULE= 0.3808798847133432E-03
_KJOULE/MOL= 0.3808798847133432E-03
_CM= 0.4556335252912009E-05
_CM-1= 0.4556335252912009E-05
_DEB2SI= 0.3335640951981520E-29
_KCAL= 0.1593601437640628E-02
_KCAL/MOL= 0.1593601437640628E-02
_KELVIN= 0.3166811563455608E-05
_HERTZ= 0.1519829846057038E-15
_HZ= 0.1519829846057038E-15
_TOA= 0.5291772109030000    
_TOANG= 0.5291772109030000    
_TORAD= 0.1745329251994330E-01
_TOCM=  219474.6313631965    
_TODEBYE=  2.541746473194078    
_TOE= 0.4803204712570263E-09
_TOEV=  27.21138624598803    
_TOHERTZ=  6579683920501656.    
_TOHZ=  6579683920501656.    
_TOK=  315775.0248040668    
_TOKCAL=  627.5094740630558    
_TOKELVIN=  315775.0248040668    
_TOKJ=  2625.499639479825    
_TOKJOULE=  2625.499639479825    
_TOKG= 0.1660539066600000E-26
_ANG=  1.889726124625770    
_ANGSTROM=  1.889726124625770    
_RPAREF=  0.000000000000000    
_RPADISS=  0.000000000000000    
_IGNORE_UNDEF=  2.000000000000000    
_STRICTCHECK=  0.000000000000000    
!SEWARD=  0.000000000000000    
!MULTI=  0.000000000000000    
!DFMULTI=  0.000000000000000    
!NUMHESS=  0.000000000000000    
_SEW_ONEEL=  0.000000000000000    
_CPPDONE=FALSE
_DKROLL_DONE=  0.000000000000000    
_FNUC_DONE=  0.000000000000000    
_FOCKDONE=TRUE
_GRADONE=FALSE
_HESSDONE=TRUE
_INTDONE=TRUE
_SCFDONE=TRUE
_MODUL_BLOCK=FALSE
_MODUL_SLATER=TRUE
_MODUL_MRCC=FALSE
_MODUL_NBO6=FALSE
_MODUL_NECI=FALSE
_MODUL_AIMS=TRUE
_MODUL_HDF5=FALSE
_MODUL_GECCO=FALSE
_ISWINDOWS=FALSE
_MRCC_EXEC=
_FITC_AO_SAVED=FALSE
_FITC_MO_SAVED=FALSE
_LSTYP=SEWARD
_INTYP=INTS
_GEOMTYP=XYZ
_GRADTYP=ALASKA
_DIRECT=FALSE
_DKHO= -1.000000000000000    
_FNUC=  0.000000000000000    
_SYNCM=  0.000000000000000    
_BASIS=6-311G(D,P)
_ZCENTRE=MASS
_ZORIENT=  1.000000000000000    
_NELEC=  28.00000000000000    
!SPIN=  0.000000000000000    
_OPTCONV= 0.1285448639269823E-01
_QSDSTEP=  0.000000000000000    
_QSDIRC=  0.000000000000000    
_PROGRAM=FREQ
_CPUSTEP=  5.359999999999999    
_SYSSTEP= 0.2900000000000000    
_WALLSTEP=  5.650000000000000    
!DFSCF=  0.000000000000000    
!SCSGRD=  0.000000000000000    
_NCEN=  9.000000000000000    
_CPUTOT=  22.72000000000000    
_DFTEXFAC=  1.000000000000000    
_DMX= 0.3021644569935736    
_DMY= 0.3329951579382406    
_DMZ=  1.227245558480436    
_DMX_SCF= 0.3021644569935736    
_DMY_SCF= 0.3329951579382406    
_DMZ_SCF=  1.227245558480436    
_FREQUENCIES= 0.5407973047207264E-04
_HOMO=  14.10000000000000    
_EHOMO=-0.4650771612054540    
_LUMO=  15.10000000000000    
_ELUMO= 0.1427727482061660    
_ENERGY= -191.1318270932748    
_ENERGY_METHOD=HF
_ENERGY_BASIS=6-311G(D,P)
_GEOMETRY_METHOD=HF
_GEOMETRY_BASIS=6-311G(D,P)
_ENUC=  79.91945909244870    
_GRADENERG= -191.1318263518737    
_GRADEXFAC=  9999.000000000000    
_GRADMETHOD=  1.000000000000000    
_NMRMETHOD=  0.000000000000000    
_NMRMAGNET=  0.000000000000000    
_VIRIAL=-0.6463357544485385E-04
!GRID_FREEZE= -1.000000000000000    
!NEESE_INDEX=  0.000000000000000    
_ITERATIONS=  12.00000000000000    
_LASTNELEC=  28.00000000000000    
_LASTSPIN=  0.000000000000000    
_LASTSYM=  1.000000000000000    
_MPP_PROG=  1.000000000000000    
_MSNSTATES=  0.000000000000000    
_RS2PHASE=  0.000000000000000    
_NPROC_MPP=  6.000000000000000    
_NPROC_SMP=  6.000000000000000    
_NUMSTEP=  0.000000000000000    
_OPTCONVMX= 0.7607232115076828E-02
_OPTCONVRMS= 0.2805078900681880E-02
_OPTGRAD= 0.2427319556942821E-03
_OPTGRADMX= 0.1466049989331382E-03
_OPTGRADRMS= 0.5296845526446261E-04
!GMAXLAST= 0.1466049989331382E-03
!DMAXLAST= 0.7607232115076828E-02
!DELAST= 0.2854798765383748E-05
_OPTSTEP=  25.00000000000000    
_ORBITAL=  2100.200000000000    
_PI=  3.141592653589793    
_SEIG_MIN= 0.8336835743363693E-02
_SEWPROP=TRUE
_STATUS=  1.000000000000000    
_SYSTOT=  2.110000000000000    
_VERSION=  2024001.000000000    
_WALLTOT=  25.02000000000000    
_ZPE= 0.8095932752144998E-01
_DATE=18-Oct-24
_LASTORB=0
_OUTPUT=/home/lme/Theoretische_Chemie/Paper/Calc_Paper/methanol_h2o/methanol_water.out
_PGROUP=C1
_TIME=16:40:24
_LIBMOL=/usr/local/molpro/molpro_2024.1.0_sockets/lib/
_VIGRDC=  0.000000000000000    
!VIBCNT=  0.000000000000000    
!SURFREC=  0.000000000000000    
!XSURFREC=  0.000000000000000    
!XPOLYREC=  0.000000000000000    
!ROTREC=  0.000000000000000    
!POLYREC=  0.000000000000000    
!DIPREC=  0.000000000000000    
!DIP4DREC=  0.000000000000000    
!DIPROT=  0.000000000000000    
!DIP4DROT=  0.000000000000000    
!PTREC=  0.000000000000000    
!PT4DREC=  0.000000000000000    
!VSCFREC=  0.000000000000000    
!VCIREC=  0.000000000000000    
!PVCIREC=  0.000000000000000    
!VMP2REC=  0.000000000000000    
!VMCSCFREC=  0.000000000000000    
!VMRCIREC=  0.000000000000000    
!VIBSTATEREC=  0.000000000000000    
!VIBSTATECNT=  0.000000000000000    
!VIBINFO=  0.000000000000000    
!GAREC=  0.000000000000000    
!SCFORB=  21002.00000000000    
!DEFCORE=  3.000000000000000    
!SCORE=  0.000000000000000    
!NEWMOL=  0.000000000000000    
!NEWSYM=  0.000000000000000    
_SLFILES=slscratch
_NGSSTO=  9.000000000000000    
_SIN=SIN
_COS=COS
_TAN=TAN
_ACOS=ACOS
_ASIN=ASIN
_ATAN=ATAN
_COSH=COSH
_SINH=SINH
_TANH=TANH
_ABS=ABS
_MOD=MOD
_ERF=ERF
_REFC=REFC
_ERFC=ERFC
_HYPOT=HYPOT
_J0=J0
_J1=J1
_JN=JN
_GAMMA=GAMMA
_LGAMMA=LGAMMA
_Y0=Y0
_Y1=Y1
_YN=YN
_EXP=EXP
_LOG=LOG
_LOG10=LOG10
_SQRT=SQRT
_INT=INT
_NINT=NINT
_MAX=MAX
_MIN=MIN
_COSMO=  0.000000000000000    
_COSMOIT=  0.000000000000000    
_COSMOES=  0.000000000000000    
_COSMOEDS=  0.000000000000000    
_COSMOEC=  0.000000000000000    
_COSMOEDCORR=  0.000000000000000    
_FEPSI=  1.000000000000000    
_SL_IsMM=  0.000000000000000    
_SL_NSYM=  1.000000000000000    
_SL_System_BitSw=  0.000000000000000    
_SL_Unique_atoms=  0.000000000000000    
_SL_GRAD=  0.000000000000000    
_SL_MAXUPD_Hess=  5.000000000000000    
_SL_N_PRINT_COD=  5.000000000000000    
_SL_PRINT_CODES=  0.000000000000000    
_SL_BasType=  0.000000000000000    
_SL_Energy_Pred=  0.000000000000000    
_SL_New_Coords=  0.000000000000000    
_SL_Total_Nuclea=  0.000000000000000    
_SL_Highest_Mltp=  0.000000000000000    
_SL_Ref_Geom=  0.000000000000000    
_SL_Symmetry_ope=  1.000000000000000    
_SL_agrad=  0.000000000000000    
_SL_GrdMax=  0.000000000000000    
_SL_GrdNorm=  0.000000000000000    
_SL_GrdRMS=  0.000000000000000    
_SL_Hss_Q=  0.000000000000000    
_SL_Hss_X=  0.000000000000000    
_SL_BMxOld=  0.000000000000000    
_SL_KtB=  0.000000000000000    
_SL_TROld=  0.000000000000000    
_SL_No_of_Intern=  0.000000000000000    
_SL_Hess=  0.000000000000000    
_SL_K=  0.000000000000000    
!LATTICE= -1.000000000000000    
!NEWLATTICE=  0.000000000000000    
!LATGRAD_VAR=FALSE
!SEW_LATTICE=  1.000000000000000    
!AIC_ONEEL=  0.000000000000000    
!LOCAL=  0.000000000000000    
!SAVEDOM= -1.000000000000000    
!RESTDOM= -1.000000000000000    
!SAVEDOM_HF= -1.000000000000000    
!RESTDOM_HF= -1.000000000000000    
!HESSREC=  5300.200000000000    
!FREQREC=  5400.200000000000    
!NMODREC=  5450.200000000000    
!GTASKS=  0.000000000000000    
!HTASKS=  0.000000000000000    
!SAVEDOM_EOM= -1.000000000000000    
!RESTDOM_EOM= -1.000000000000000    
!GRADSTATE= -1.000000000000000    
!DEBUG=  0.000000000000000    
!CFIT_CPHF=  0.000000000000000    
!RDOMAUX_CPHF=  0.000000000000000    
!THRAO_CPHF= 0.1000000000000000E-11
!THRMO_CPHF= 0.1000000000000000E-11
!THROV_CPHF= 0.1000000000000000E-13
!THRSW_CPHF= 0.1000000000000000E-11
!THRPROD_CPHF= 0.1000000000000000E-11
!THRAOPR_CPHF= 0.1000000000000000E-11
!CFIT_SCFGRD=  0.000000000000000    
!RDOMAUX_SCFGRD=  0.000000000000000    
!THRAO_SCFGRD= 0.1000000000000000E-11
!THRMO_SCFGRD= 0.1000000000000000E-11
!THROV_SCFGRD= 0.1000000000000000E-13
!THRSW_SCFGRD= 0.1000000000000000E-11
!THRPROD_SCFGRD= 0.1000000000000000E-11
!THRAOPR_SCFGRD= 0.1000000000000000E-11
!LOCFIT_SCF=  0.000000000000000    
!LOCFIT_MP2=  0.000000000000000    
_RIDOM=  0.000000000000000    
!CC2_METHOD=  0.000000000000000    
_BASIS2006=FALSE
_SVDDEL= -1.000000000000000    
_SVDDELA= -1.000000000000000    
_SVDDELP= -1.000000000000000    
_SVDDELF= -1.000000000000000    
_SVDDELS= -1.000000000000000    
_SVDDEL_ABS= -1.000000000000000    
_SVDDELA_ABS= -1.000000000000000    
_SVDDELP_ABS= -1.000000000000000    
_SVDDELF_ABS= -1.000000000000000    
_SVDDELS_ABS= -1.000000000000000    
_MAXBASIS=  0.000000000000000    
!OPT_CONICAL=  0.000000000000000    
!CLEARSP_JGRID=  0.000000000000000    
_GRDHYBR=  0.000000000000000    
_STATEGRAD=  1.000000000000000    
_4EXT_NDISKS=  1.000000000000000    
!EMBEDFLAG=  1.000000000000000    
!EMBED=FALSE
!EMBED_F12=FALSE
!EMBEDNUC=  0.000000000000000    
_EMBEDENERGY=  0.000000000000000    
!EMBED_DFC=FALSE
!NUM_VOIDS=  0.000000000000000    
_IBODY=  0.000000000000000    
_EMBE_CORR=  0.000000000000000    
!EMBED_PROJ=FALSE
!EMB_PROJ_ZMU=  1000000.000000000    
!CORRECTION_HF=  0.000000000000000    
!EMBED_AORB=  0.000000000000000    
!EMBED_NACORR=  0.000000000000000    
!EMBED_MP2=FALSE
!EMBED_TRUNC_PERTURBATION=FALSE
!EMBED_FROZEN=  0.000000000000000    
!EMBED_ACTIVE=  0.000000000000000    
_CHANGE_BASIS=FALSE
_RESTORE_BASIS=FALSE
_FIX_EMBED_GUESS=FALSE
_EMBED_SCF=FALSE
_NEOBAS=FALSE
_NEOOVE=FALSE
_PRINEO=FALSE
_HUZINAGA_T=FALSE
_HUZINAGA_F=FALSE
_HUZINAGA=FALSE
_HUZINAGA_CORRECT=FALSE
!FASTLATGRAD=  1.000000000000000    
!FASTVLAMBDA= -1.000000000000000    
!IFORCE= -1.000000000000000    
!USESYM= -1.000000000000000    
_SINDEX=  0.000000000000000    
_AVDOM_OSV=  0.000000000000000    
_AVDOM_PNO=  0.000000000000000    
_AVDOM_PNOCC=  0.000000000000000    
_AVDOM_TNO=  0.000000000000000    
_AVDOM_TNOIT=  0.000000000000000    
_AVDOM_PAO=  0.000000000000000    
_AVDOM_LMO=  0.000000000000000    
_CC2OSV_FLAG=  0.000000000000000    
_EOMCCSD_CONV=FALSE
_TMADC2_FLAG=FALSE
_PROPADC2_FLAG=FALSE
_LEN_VirQ=  0.000000000000000    
_GRDCC2LR_FLAG=FALSE
_GRDADC2_FLAG=FALSE
_RO_VGLOBAL=  0.000000000000000    
_OPT=FALSE
_FREQ=FALSE
_HESS=FALSE
_CMRCC_callName=EMPTY
_CMRCC_callCount=  0.000000000000000    
_GECCO_CIROOT=  1.000000000000000    
_SYM_CATION=  1.000000000000000    
_MON_A=FALSE
_MON_B=FALSE
_MAXGEOM=  100.0000000000000    
!MAXGEOM=  100.0000000000000    
_NCORE=  0.000000000000000    
_NLARGECORE=  0.000000000000000    
GX1=-0.5528072927589907E-01
GY1=-0.1410212171075867    
GZ1= -2.037474724421519    
GX2= 0.8116668040240970    
GY2= 0.4996357340276773E-01
GZ2= -2.348129127957978    
GX3=-0.1177795760810459    
GY3= 0.2899607281856015    
GZ3= -1.198504193075556    
GX4= 0.3250068757908257E-01
GY4= 0.6525566322200200    
GZ4= 0.7869980229041779    
GX5=-0.3501534587653240    
GY5=  1.317584531386782    
GZ5=  1.329828223782428    
GX6= 0.1523638161267025E-02
GY6=-0.5881254065050852    
GZ6=  1.448307224994440    
GX7= 0.3706652534882287    
GY7= -1.326667626819186    
GZ7= 0.7510214630102341    
GX8= 0.6381259809181393    
GY8=-0.5844399295175364    
GZ8=  2.328939557971486    
GX9= -1.009131002838308    
GY9=-0.8621287575750877    
GZ9=  1.738065119539264    
OX1=-0.1044654383010311    
OY1=-0.2664914780947292    
OZ1= -3.850269215004037    
HX2=  1.533827964055841    
HY2= 0.9441746993886746E-01
HZ2= -4.437320957096919    
HX3=-0.2225711418677009    
HY3= 0.5479463631678431    
HZ3= -2.264844684128406    
OX4= 0.6141739838649261E-01
OY4=  1.233153315703982    
OZ4=  1.487210723910855    
HX5=-0.6616941386569052    
HY5=  2.489873910364405    
HZ5=  2.513011135746340    
CX6= 0.2879258837823091E-02
CY6= -1.111395945228810    
CZ6=  2.736903999556246    
HX7= 0.7004558130077392    
HY7= -2.507038473095488    
HZ7=  1.419224878805106    
HX8=  1.205883336943454    
HY8= -1.104431403083732    
HZ8=  4.401057925373111    
HX9= -1.906981219233352    
HY9= -1.629187235980801    
HZ9=  3.284467062694159    
[Atoms] Angs
O     1    8        -0.0552807293       -0.1410212171       -2.0374747244
H     2    1         0.8116668040        0.0499635734       -2.3481291280
H     3    1        -0.1177795761        0.2899607282       -1.1985041931
O     4    8         0.0325006876        0.6525566322        0.7869980229
H     5    1        -0.3501534588        1.3175845314        1.3298282238
C     6    6         0.0015236382       -0.5881254065        1.4483072250
H     7    1         0.3706652535       -1.3266676268        0.7510214630
H     8    1         0.6381259809       -0.5844399295        2.3289395580
H     9    1        -1.0091310028       -0.8621287576        1.7380651195
[GTO]
   1 0
 s    6  1.00
  0.8588500000D+04  0.1895150083D-02
  0.1297230000D+04  0.1438590063D-01
  0.2992960000D+03  0.7073200310D-01
  0.8737710000D+02  0.2400010105D+00
  0.2567890000D+02  0.5947970261D+00
  0.3740040000D+01  0.2808020123D+00
 s    3  1.00
  0.4211750000D+02  0.1138890124D+00
  0.9628370000D+01  0.9208111006D+00
  0.2853320000D+01 -0.3274470358D-02
 s    1  1.00
  0.9056610000D+00  0.1000000000D+01
 s    1  1.00
  0.2556110000D+00  0.1000000000D+01
 p    3  1.00
  0.4211750000D+02  0.3651139738D-01
  0.9628370000D+01  0.2371529830D+00
  0.2853320000D+01  0.8197019412D+00
 p    1  1.00
  0.9056610000D+00  0.1000000000D+01
 p    1  1.00
  0.2556110000D+00  0.1000000000D+01
 d    1  1.00
  0.1292000000D+01  0.1000000000D+01
  
   2 0
 s    3  1.00
  0.3386500000D+02  0.2549381454D-01
  0.5094790000D+01  0.1903731086D+00
  0.1158790000D+01  0.8521614860D+00
 s    1  1.00
  0.3258400000D+00  0.1000000000D+01
 s    1  1.00
  0.1027410000D+00  0.1000000000D+01
 p    1  1.00
  0.7500000000D+00  0.1000000000D+01
  
   3 0
 s    3  1.00
  0.3386500000D+02  0.2549381454D-01
  0.5094790000D+01  0.1903731086D+00
  0.1158790000D+01  0.8521614860D+00
 s    1  1.00
  0.3258400000D+00  0.1000000000D+01
 s    1  1.00
  0.1027410000D+00  0.1000000000D+01
 p    1  1.00
  0.7500000000D+00  0.1000000000D+01
  
   4 0
 s    6  1.00
  0.8588500000D+04  0.1895150083D-02
  0.1297230000D+04  0.1438590063D-01
  0.2992960000D+03  0.7073200310D-01
  0.8737710000D+02  0.2400010105D+00
  0.2567890000D+02  0.5947970261D+00
  0.3740040000D+01  0.2808020123D+00
 s    3  1.00
  0.4211750000D+02  0.1138890124D+00
  0.9628370000D+01  0.9208111006D+00
  0.2853320000D+01 -0.3274470358D-02
 s    1  1.00
  0.9056610000D+00  0.1000000000D+01
 s    1  1.00
  0.2556110000D+00  0.1000000000D+01
 p    3  1.00
  0.4211750000D+02  0.3651139738D-01
  0.9628370000D+01  0.2371529830D+00
  0.2853320000D+01  0.8197019412D+00
 p    1  1.00
  0.9056610000D+00  0.1000000000D+01
 p    1  1.00
  0.2556110000D+00  0.1000000000D+01
 d    1  1.00
  0.1292000000D+01  0.1000000000D+01
  
   5 0
 s    3  1.00
  0.3386500000D+02  0.2549381454D-01
  0.5094790000D+01  0.1903731086D+00
  0.1158790000D+01  0.8521614860D+00
 s    1  1.00
  0.3258400000D+00  0.1000000000D+01
 s    1  1.00
  0.1027410000D+00  0.1000000000D+01
 p    1  1.00
  0.7500000000D+00  0.1000000000D+01
  
   6 0
 s    6  1.00
  0.4563240000D+04  0.1966650249D-02
  0.6820240000D+03  0.1523060193D-01
  0.1549730000D+03  0.7612690966D-01
  0.4445530000D+02  0.2608010331D+00
  0.1302900000D+02  0.6164620782D+00
  0.1827730000D+01  0.2210060280D+00
 s    3  1.00
  0.2096420000D+02  0.1146600807D+00
  0.4803310000D+01  0.9199996477D+00
  0.1459330000D+01 -0.3030682134D-02
 s    1  1.00
  0.4834560000D+00  0.1000000000D+01
 s    1  1.00
  0.1455850000D+00  0.1000000000D+01
 p    3  1.00
  0.2096420000D+02  0.4024869267D-01
  0.4803310000D+01  0.2375939567D+00
  0.1459330000D+01  0.8158538515D+00
 p    1  1.00
  0.4834560000D+00  0.1000000000D+01
 p    1  1.00
  0.1455850000D+00  0.1000000000D+01
 d    1  1.00
  0.6260000000D+00  0.1000000000D+01
  
   7 0
 s    3  1.00
  0.3386500000D+02  0.2549381454D-01
  0.5094790000D+01  0.1903731086D+00
  0.1158790000D+01  0.8521614860D+00
 s    1  1.00
  0.3258400000D+00  0.1000000000D+01
 s    1  1.00
  0.1027410000D+00  0.1000000000D+01
 p    1  1.00
  0.7500000000D+00  0.1000000000D+01
  
   8 0
 s    3  1.00
  0.3386500000D+02  0.2549381454D-01
  0.5094790000D+01  0.1903731086D+00
  0.1158790000D+01  0.8521614860D+00
 s    1  1.00
  0.3258400000D+00  0.1000000000D+01
 s    1  1.00
  0.1027410000D+00  0.1000000000D+01
 p    1  1.00
  0.7500000000D+00  0.1000000000D+01
  
   9 0
 s    3  1.00
  0.3386500000D+02  0.2549381454D-01
  0.5094790000D+01  0.1903731086D+00
  0.1158790000D+01  0.8521614860D+00
 s    1  1.00
  0.3258400000D+00  0.1000000000D+01
 s    1  1.00
  0.1027410000D+00  0.1000000000D+01
 p    1  1.00
  0.7500000000D+00  0.1000000000D+01


[MO]
 Sym=      1.1
 Ene=     -20.5646
 Spin= Alpha
 Occup=    2.000000
1 -0.000023475204143
2 -0.000026356011094
3 0.000052386307397
4 -0.000180330643028
5 0.000006648815684
6 -0.000003947607074
7 -0.000006680334981
8 -0.000024865011759
9 0.000013826794798
10 0.000026233157291
11 0.000014990422409
12 -0.000047348940713
13 -0.000095733493564
14 -0.000004355632542
15 0.000006289745131
16 -0.000001934112589
17 -0.000004745553951
18 -0.000000476657589
19 0.000002746667615
20 0.000005734111400
21 0.000026571952381
22 -0.000044481627202
23 -0.000012169006375
24 0.000000101482674
25 0.000009960004615
26 -0.000034639331050
27 0.000155157329271
28 0.000132839438336
29 0.000010682357201
30 0.000000933574770
31 0.000045197015361
32 0.55143729653467
33 0.47165965238090
34 0.005679892841198
35 -0.000774759771536
36 -0.000660754588528
37 -0.000227664046089
38 0.001503052634505
39 0.000237382164579
40 0.000073954246305
41 -0.000586467440892
42 -0.000067283485349
43 0.000226611734456
44 0.000151659764931
45 0.000114185486359
46 -0.000124441201015
47 0.000010255714656
48 0.000042167263992
49 0.000049363641882
50 0.000053432992250
51 0.000203157075708
52 0.000025103817217
53 0.000053335945687
54 0.000003177468739
55 -0.000069430625880
56 -0.000002047192049
57 -0.000002743732488
58 -0.000030244474413
59 0.000086195191475
60 0.000511097123046
61 0.000007433387500
62 0.000022403507190
63 -0.000020456011418
64 -0.000014997466053
65 0.000231449114985
66 -0.000087366500257
67 0.000072228198652
68 0.000091815175004
69 -0.000187665282874
70 -0.000052975323749
71 0.000087478561717
72 -0.000034503237968
73 -0.000005341524859
74 0.000016498727496
75 -0.000082277136069
76 0.000022234598835
77 -0.000106091050770
78 -0.000083889935059
79 -0.000005595820370
80 0.000008469856460
81 0.000010395540068
82 0.000011075231568
83 -0.000073779668972
84 -0.000001327168699
85 -0.000015403506255
86 -0.000016762764951
87 0.000018582422505
88 0.000006861484838
89 -0.000046182151297
90 -0.000000684697498
91 0.000009826469529
92 -0.000014566311263
93 0.000023574632650
 Sym=      2.1
 Ene=     -20.5118
 Spin= Alpha
 Occup=    2.000000
1 0.55142740662025
2 0.47167175761204
3 0.005609948025521
4 -0.000558835223680
5 0.001246862780266
6 0.000917440027075
7 0.000734073581318
8 -0.000443293478646
9 -0.000306603126734
10 -0.000230605107417
11 0.000080872144370
12 0.000018931899799
13 -0.000018796509363
14 -0.000042551616578
15 0.000067074107020
16 -0.000024522490442
17 -0.000033397717786
18 0.000069221280724
19 -0.000054362809605
20 0.000209036354569
21 0.000102237583972
22 0.000048055446195
23 -0.000058056260182
24 0.000004581189300
25 0.000050719280830
26 0.000198011223408
27 0.000104522574217
28 0.000232333607185
29 0.000036157995703
30 -0.000020557030015
31 -0.000052776534197
32 0.000024121917157
33 0.000019717477840
34 0.000006947630274
35 -0.000007124388895
36 -0.000000568477728
37 -0.000000806641285
38 0.000009220531950
39 0.000003437095602
40 0.000002579424364
41 -0.000028076139153
42 -0.000000895693566
43 -0.000023196477944
44 0.000096870223230
45 0.000000435299515
46 0.000000484303276
47 -0.000000919602791
48 0.000001565967486
49 -0.000001443754318
50 -0.000003353560945
51 -0.000006905226168
52 0.000015219064609
53 -0.000030596641472
54 -0.000001345891928
55 0.000004143890052
56 -0.000012946408920
57 0.000000057412635
58 -0.000000229617485
59 0.000005758189439
60 -0.000077868186051
61 -0.000001423835460
62 0.000003163744891
63 0.000003999916504
64 0.000006012210711
65 -0.000014482562393
66 -0.000016193735155
67 -0.000004197177343
68 -0.000020078986789
69 0.000023260206408
70 -0.000000234478221
71 -0.000004932390874
72 0.000005166869094
73 -0.000001882123640
74 -0.000003113138344
75 -0.000000711799653
76 0.000001560421114
77 -0.000007554106967
78 0.000012441231306
79 0.000001665565050
80 -0.000003944186876
81 0.000001947071663
82 0.000000367922578
83 0.000012238834990
84 0.000001931142568
85 -0.000001764139386
86 0.000002057345299
87 -0.000003651451170
88 -0.000002506356126
89 0.000020365053743
90 -0.000008406600696
91 0.000002725976399
92 0.000003205596531
93 -0.000001927077216
 Sym=      3.1
 Ene=     -11.2768
 Spin= Alpha
 Occup=    2.000000
1 0.000000060415728
2 0.000000383747332
3 -0.000000107428788
4 -0.000026476135850
5 -0.000000215838379
6 0.000002800952172
7 -0.000000065008665
8 -0.000000296091445
9 -0.000009264750230
10 -0.000002905892404
11 -0.000010276750947
12 0.000007158958517
13 -0.000017792591958
14 0.000001017223588
15 0.000001677123663
16 -0.000002694347251
17 -0.000000035858073
18 0.000000772659242
19 -0.000002864369642
20 -0.000003245455946
21 0.000025175623587
22 -0.000019239651535
23 -0.000002101412553
24 -0.000001352999230
25 0.000003220939453
26 0.000002442186806
27 0.000013238317074
28 -0.000008954220634
29 0.000001114024759
30 -0.000005471542670
31 -0.000016221729134
32 -0.000071644588481
33 -0.000129716673208
34 0.000300852060450
35 0.000378037663751
36 -0.000006460945345
37 -0.000087500977910
38 0.000054493819100
39 -0.000004791209056
40 -0.000508121192738
41 0.000258022333133
42 -0.000008339580257
43 -0.000143514590486
44 0.000079007781020
45 -0.000110140574919
46 0.000136958958148
47 -0.000026818383230
48 0.000022514592612
49 -0.000001786349627
50 -0.000184980250869
51 -0.000010502102841
52 0.000024830012822
53 -0.000029308145467
54 0.000021041522729
55 -0.000034605344542
56 -0.000029192875604
57 0.56343352953980
58 0.46655617589297
59 0.004173024977049
60 -0.001285804748902
61 -0.000015830196065
62 0.000981009236713
63 -0.000408525041409
64 0.000012225094718
65 -0.000777262673820
66 0.000308799182238
67 -0.000017198205631
68 0.000148705195195
69 -0.000026521185875
70 0.000136047233177
71 -0.000200096660779
72 0.000064049427602
73 -0.000022534232248
74 -0.000016815140872
75 0.000242866194392
76 0.000345852716621
77 0.000016150104323
78 0.000323074650053
79 0.000021588761904
80 0.000001444680220
81 -0.000054962936739
82 0.000349507624718
83 0.000072358847162
84 0.000260001516495
85 0.000016656400628
86 0.000040365488419
87 0.000003574839242
88 0.000349557515401
89 0.000063288799817
90 0.000261612732212
91 -0.000029607228793
92 0.000033027827231
93 -0.000009355821508
 Sym=      4.1
 Ene=      -1.3821
 Spin= Alpha
 Occup=    2.000000
1 -0.006875342927896
2 -0.011439208537080
3 0.031922618002813
4 0.023136149270743
5 0.001386731221935
6 0.001541683532223
7 0.002250328018781
8 0.002539331816918
9 0.002338777609516
10 0.003017589738663
11 0.001064121458802
12 0.001144146774427
13 0.002853833710611
14 0.000070455900447
15 -0.000406172624205
16 0.000335716723759
17 0.000235718652981
18 -0.000141429931655
19 0.000386103249394
20 0.005432573975586
21 0.003572625712102
22 0.000479468878006
23 -0.001291520338854
24 -0.000212720518980
25 0.000506705575964
26 0.009084675202781
27 0.005394075854549
28 0.001188348815651
29 0.000195287495452
30 -0.000723336586810
31 -0.001857568702681
32 -0.10980463217344
33 -0.18340290735821
34 0.51927202378419
35 0.39341775763883
36 -0.012868122489849
37 -0.005816119625257
38 0.030168782914090
39 -0.021845066156015
40 -0.012516283886830
41 0.052811477758354
42 -0.007608766933000
43 -0.020562889978830
44 0.020180616699060
45 -0.005969418192978
46 0.005349622474678
47 0.000619795718300
48 -0.002989898232690
49 -0.004018302159487
50 -0.000532888080726
51 0.091085638878167
52 0.075564885779386
53 -0.001557880616511
54 0.010547783567144
55 -0.020716844491886
56 -0.013082940034710
57 -0.036444848726828
58 -0.059495909395958
59 0.14783464419433
60 -0.000383439195823
61 0.000054579911318
62 0.035735983380769
63 -0.017525803085522
64 -0.000295839659423
65 0.071491680075343
66 -0.033109337739650
67 -0.001315439131185
68 -0.002086586899680
69 0.007213992393676
70 -0.014026748617311
71 0.020348018627874
72 -0.006321270010563
73 -0.000221659446610
74 -0.000075491536892
75 -0.018239160776636
76 0.014490407183774
77 0.031754368999625
78 0.000756055558254
79 -0.002825423051733
80 0.006225355746971
81 0.004912467562841
82 0.014380991943527
83 0.028372000630707
84 -0.000945768391497
85 -0.004454049010586
86 0.000848438584988
87 -0.006984631446193
88 0.014490160492166
89 0.029350118690801
90 -0.000664882000072
91 0.007431812950731
92 0.002886606159137
93 -0.002868036371820
 Sym=      5.1
 Ene=      -1.3200
 Spin= Alpha
 Occup=    2.000000
1 -0.11316617377007
2 -0.18898331305405
3 0.53548999854666
4 0.37901135637145
5 0.026828130444456
6 0.020281617162848
7 0.016960398334132
8 0.045079367801027
9 0.033526253281733
10 0.027950524683887
11 0.013610392939160
12 0.011751097275871
13 0.011204488825935
14 0.002652346680413
15 -0.004749299642826
16 0.002096952962413
17 0.003339640893799
18 -0.003559062275158
19 0.005030057589048
20 0.097060480758898
21 0.081309336887785
22 0.000333529011992
23 -0.024687583955881
24 -0.004185855330371
25 0.011256359419567
26 0.093795638090338
27 0.075643181612031
28 -0.009219409948339
29 0.004161546301709
30 -0.011582334090838
31 -0.025031366409247
32 0.007419970908585
33 0.012416457965353
34 -0.035298515719265
35 -0.027170291882187
36 0.000921618937971
37 0.000002746861199
38 -0.004604080875225
39 0.001540115117470
40 0.000201848464895
41 -0.006249331747116
42 0.000603997325630
43 0.002088519899009
44 -0.007111377446909
45 0.000469943249466
46 -0.000389916634475
47 -0.000080026614991
48 0.000208230475137
49 0.000359797411951
50 0.000161480650129
51 -0.007064268971585
52 -0.006919680825102
53 0.001511248706770
54 -0.000793355770290
55 0.001538444619491
56 0.001265227830520
57 0.002707287977887
58 0.004434693528863
59 -0.011216206463093
60 0.000250100955214
61 0.000038455388095
62 -0.002881064181999
63 0.000908347686368
64 -0.000061189879014
65 -0.005300232782034
66 0.002111335822923
67 -0.000778376729935
68 0.002235995581286
69 -0.001516959489101
70 0.000936493060168
71 -0.001404233552191
72 0.000467740492024
73 0.000058019949666
74 0.000019749103479
75 0.001170425606521
76 -0.000825986973646
77 -0.001496287115982
78 0.003511090292389
79 0.000060383024151
80 -0.000050298760930
81 -0.000614379742048
82 -0.001317500053329
83 -0.001824665613032
84 -0.000354765014208
85 0.000341788389606
86 -0.000163153741965
87 0.000523071917257
88 -0.001070402732280
89 -0.003011096205639
90 0.000145751536909
91 -0.000567188799259
92 -0.000366193234336
93 0.000319231219187
 Sym=      6.1
 Ene=      -0.9412
 Spin= Alpha
 Occup=    2.000000
1 -0.000165486331698
2 -0.000257637931777
3 0.000241276378193
4 0.004948775082192
5 0.000215977007825
6 -0.000990384033309
7 -0.000123855758738
8 0.000593393403841
9 -0.001297988843456
10 -0.000164653558139
11 0.000083984463671
12 -0.000780780783612
13 0.001808219934871
14 0.000041978023957
15 -0.000120188571572
16 0.000078210547615
17 -0.000012972725279
18 -0.000025204893772
19 -0.000084327401192
20 0.000230783677709
21 -0.000491284709120
22 0.001475556862750
23 0.000133581607381
24 -0.000060373209545
25 -0.000147857987656
26 -0.001117733792698
27 -0.003701913027703
28 -0.004657511011587
29 -0.000035468940053
30 -0.000161271499492
31 0.000209512496502
32 0.030124159993464
33 0.050637899635236
34 -0.14613727969643
35 -0.14087795201788
36 0.015950704920587
37 -0.093055936173466
38 0.008998035861866
39 0.025700760326822
40 -0.14832030212892
41 0.014378274255821
42 0.010244565075519
43 -0.079957274901959
44 0.015576439735891
45 -0.002882907862855
46 0.003964124401910
47 -0.001081216539055
48 0.004805611445287
49 0.002676804131467
50 -0.013085086361167
51 -0.076743581041227
52 -0.088409307537532
53 -0.012258636243164
54 -0.007394653095437
55 0.008765692068497
56 0.012471344890609
57 -0.094635268233208
58 -0.15720088104758
59 0.40844486591483
60 0.24147151067852
61 0.002402066566548
62 -0.025654527909145
63 0.006191166630539
64 0.003972764451744
65 -0.021512794499485
66 0.000241299149162
67 -0.002128687895352
68 -0.017053375386162
69 0.013015235780241
70 -0.000712534794182
71 -0.001432951419542
72 0.002145486213723
73 0.000307671659973
74 -0.001372126701453
75 -0.000381905663314
76 0.086089271616298
77 0.12154785913256
78 0.005956782228643
79 -0.006997607450883
80 0.012516456542249
81 0.014703197516292
82 0.081922590183668
83 0.11410400970934
84 0.003020897427639
85 -0.011617851020285
86 -0.001705905373131
87 -0.016025003782614
88 0.081670805018889
89 0.11326645919494
90 0.002708842959135
91 0.018799098483475
92 0.003590720365560
93 -0.004966082306123
 Sym=      7.1
 Ene=      -0.7192
 Spin= Alpha
 Occup=    2.000000
1 -0.003711079238697
2 -0.006292727296727
3 0.018852283321410
4 0.020149189362263
5 0.045243813915267
6 -0.015317541204439
7 -0.071617905115512
8 0.069939556409505
9 -0.023065262957935
10 -0.10909915082245
11 0.037611033616669
12 -0.014976243377487
13 -0.071017251250806
14 0.008171468242769
15 -0.001177031879933
16 -0.006994436362836
17 0.002074457019227
18 -0.003357526070001
19 -0.005585847777928
20 0.055477595381321
21 0.077798117132204
22 0.018739209559317
23 -0.011393509055399
24 -0.004294951261625
25 0.000038419658006
26 -0.062975197908877
27 -0.081620529304155
28 -0.027628128736288
29 0.001242527033459
30 0.006634745166341
31 0.009451142312812
32 0.020542571235017
33 0.034945131116917