
 Working directory              : /tmp/lme/molpro.1EC77G4tEU/
 Global scratch directory       : /tmp/lme/molpro.1EC77G4tEU/
 Wavefunction directory         : /home/lme/wfu/
 Main file repository           : /tmp/lme/molpro.1EC77G4tEU/

 id        : liedlgroup

 Nodes     nprocs
 sv1-c724     1
 GA implementation: MPI file
 GA implementation (serial work in mppx): MPI file

 Using customized tuning parameters: mindgm=1; mindgv=20; mindgc=4; mindgr=1; noblas=0; minvec=7
 default implementation of scratch files=df  


 Variables initialized (1042), CPU time= 0.00 sec
 
                  orient,mass
                  geometry=/home/lme/Theoretische_Chemie/Nomodeco/deuterium_calculations/ch4/ch4.xyz
 Including file /home/lme/Theoretische_Chemie/Nomodeco/deuterium_calculations/ch4/ch4.xyz
                  mass, H2=2.014;                                                ! Set custom mass for hydrogen
                  basis=6-311g(d,p)
                  {hf
                  start, atden}
                  optg;
                  {frequencies, symm=auto, print=0, analytical}
                  put, molden, cdh3.molden
 Commands initialized (847), CPU time= 0.00 sec, 718 directives.
 Default parameters read. Elapsed time= 0.07 sec

 Checking input...
 Passed
1


                                         ***  PROGRAM SYSTEM MOLPRO  ***
                                       Copyright, TTI GmbH Stuttgart, 2015
                                    Version 2024.1 linked Wed Jan 31 11:42:09 2024


 **********************************************************************************************************************************
 LABEL *                                                                                                                                                                 
  (6 PROC) 64 bit serial version                                                         DATE: 30-Sep-24          TIME: 10:47:29  
 **********************************************************************************************************************************

 SHA1:             675817fde4514a4a933b69e420913a90cee4ef91
 **********************************************************************************************************************************

 Memory per process:        32 MW
 Total memory per node:     32 MW

 GA preallocation disabled
 GA check disabled

 Variable memory set to 32.0 MW

 ZCENTRE=MASS


 Geometry recognized as XYZ


 SETTING MASS FOR H2   (Z=  1)   TO   2.014
 SETTING BASIS          =    6-311G(D,P)


 Recomputing integrals since basis changed


 Using spherical harmonics

 Library entry C      S 6-311G               selected for orbital group  1
 Library entry C      P 6-311G               selected for orbital group  1
 Library entry C      D 6-311G*              selected for orbital group  1
 Library entry H      S 6-311G               selected for orbital group  2
 Library entry H      P 6-311G**             selected for orbital group  2


 PROGRAM * SEWARD (Integral evaluation for generally contracted gaussian basis sets)     Author: Roland Lindh, 1990

 Geometry written to block  1 of record 700

 Orientation using atomic masses  
 Molecule type: Asymmetric top
 Symmetry elements: Y
 Rotational constants:     117.2504923    117.2499459    158.5477001 GHz  (calculated with average atomic masses)

 Point group  Cs  



 ATOMIC COORDINATES

 NR  ATOM    CHARGE       X              Y              Z

   1  C1      6.00    0.000000000    0.000000000   -0.121438475
   2  H2      1.00    0.000000000    0.000000000    1.936473275
   3  H3      1.00    1.940219607    0.000000000   -0.807409058
   4  H4      1.00   -0.970109803   -1.680268881   -0.807409058
   5  H5      1.00   -0.970109803    1.680268881   -0.807409058

 Bond lengths in Bohr (Angstrom)

 1-2  2.057911750  1-3  2.057913449  1-4  2.057904804  1-5  2.057904804
     ( 1.089000000)     ( 1.089000899)     ( 1.088996325)     ( 1.088996325)

 Bond angles

  2-1-3  109.47120391   2-1-4  109.47128900   2-1-5  109.47128900   3-1-4  109.47132245

  3-1-5  109.47132245   4-1-5  109.47089699

 NUCLEAR CHARGE:                   10
 NUMBER OF PRIMITIVE AOS:          64
 NUMBER OF SYMMETRY AOS:           63
 NUMBER OF CONTRACTIONS:           42   (   29A'  +   13A"  )
 NUMBER OF INNER CORE ORBITALS:     0   (    0A'  +    0A"  )
 NUMBER OF OUTER CORE ORBITALS:     1   (    1A'  +    0A"  )
 NUMBER OF VALENCE ORBITALS:        8   (    6A'  +    2A"  )


 NUCLEAR REPULSION ENERGY   13.44774653

 Eigenvalues of metric

         1 0.127E-01 0.233E-01 0.233E-01 0.547E-01 0.547E-01 0.551E-01 0.117E+00 0.120E+00
         2 0.233E-01 0.547E-01 0.120E+00 0.333E+00 0.347E+00 0.487E+00 0.678E+00 0.924E+00


 Contracted 2-electron integrals neglected if value below      1.0D-11
 AO integral compression algorithm  1   Integral accuracy      1.0D-11

     1.573 MB (compressed) written to integral file ( 63.2%)


 NUMBER OF SORTED TWO-ELECTRON INTEGRALS:     217771.     BUFFER LENGTH:  32768
 NUMBER OF SEGMENTS:   1  SEGMENT LENGTH:     217771      RECORD LENGTH: 524288

 Memory used in sort:       0.77 MW

 SORT1 READ      285300. AND WROTE      199598. INTEGRALS IN      1 RECORDS. CPU TIME:     0.00 SEC, REAL TIME:     0.01 SEC
 SORT2 READ      199598. AND WROTE      217771. INTEGRALS IN      6 RECORDS. CPU TIME:     0.02 SEC, REAL TIME:     0.01 SEC

 FILE SIZES:   FILE 1:    31.7 MBYTE,  FILE 4:     4.3 MBYTE,   TOTAL:     35.9 MBYTE

 OPERATOR DM      FOR CENTER  0  COORDINATES:    0.000000    0.000000    0.000000


 **********************************************************************************************************************************
 DATASETS  * FILE   NREC   LENGTH (MB)   RECORD NAMES
              1      19       29.69       500      610      700      900      950      970     1000      129      960     1100   
                                          VAR    BASINP    GEOM    SYMINP    ZMAT    AOBASIS   BASIS     P2S    ABASIS      S 
                                         1400     1410     1200     1210     1080     1600     1650     1300     1700   
                                           T        V       H0       H01     AOSYM     SMH    MOLCAS    ERIS     OPER   

 PROGRAMS   *        TOTAL       INT
 CPU TIMES  *         0.23      0.13
 REAL TIME  *         0.30 SEC
 DISK USED  *        34.65 MB
 **********************************************************************************************************************************


 Program * Restricted Hartree-Fock

 Orbital guess generated from atomic densities.

 Initial occupancy:   4   1

 NELEC=   10   SYM=1   MS2= 0   THRE=1.0D-08   THRD=1.0D-06   THRG=1.0D-06  HFMA2=F  DIIS_START=2   DIIS_MAX=10   DIIS_INCORE=F

 Level shifts:    0.00 (CLOSED)    0.00 (OPEN)    0.30 (GAP_MIN)

 ITER           ETOT              DE          GRAD        DDIFF     DIIS  NEXP   TIME(IT)  TIME(TOT)  DIAG
   1      -40.19058090     -40.19058090     0.00D+00     0.62D-01     0     0       0.00      0.01    start
   2      -40.20658203      -0.01600114     0.11D-01     0.60D-02     1     0       0.00      0.01    diag
   3      -40.20865598      -0.00207395     0.41D-02     0.23D-02     2     0       0.01      0.02    diag
   4      -40.20894664      -0.00029066     0.10D-02     0.13D-02     3     0       0.00      0.02    diag
   5      -40.20895110      -0.00000446     0.13D-03     0.25D-03     4     0       0.00      0.02    diag
   6      -40.20895112      -0.00000002     0.91D-05     0.24D-04     5     0       0.00      0.02    diag
   7      -40.20895112      -0.00000000     0.62D-06     0.14D-05     6     0       0.00      0.02    diag
   8      -40.20895112      -0.00000000     0.53D-07     0.62D-07     7     0       0.00      0.02    fixocc
   9      -40.20895112       0.00000000     0.33D-08     0.47D-08     0     0       0.00      0.02    diag

 Final occupancy:   4   1

 !RHF STATE 1.1 Energy                -40.208951123056
  RHF One-electron energy             -79.743383708340
  RHF Two-electron energy              26.086686050504
  RHF Kinetic energy                   40.160221468877
  RHF Nuclear energy                   13.447746534781
  RHF Virial quotient                  -1.001213381112

 !RHF STATE 1.1 Dipole moment          -0.00000204     0.00000000    -0.00000102
 Dipole moment /Debye                  -0.00000518     0.00000000    -0.00000258

 Orbital energies:

           1.1          2.1          3.1          4.1          5.1          6.1
    -11.207360    -0.943047    -0.544867    -0.544866     0.161791     0.237111

           1.2          2.2          3.2
     -0.544866     0.237111     0.427191


 HOMO      4.1    -0.544866 =     -14.8265eV
 LUMO      5.1     0.161791 =       4.4026eV
 LUMO-HOMO         0.706656 =      19.2291eV

 Orbitals saved in record  2100.2


 **********************************************************************************************************************************
 DATASETS  * FILE   NREC   LENGTH (MB)   RECORD NAMES
              1      19       29.69       500      610      700      900      950      970     1000      129      960     1100   
                                          VAR    BASINP    GEOM    SYMINP    ZMAT    AOBASIS   BASIS     P2S    ABASIS      S 
                                         1400     1410     1200     1210     1080     1600     1650     1300     1700   
                                           T        V       H0       H01     AOSYM     SMH    MOLCAS    ERIS     OPER   

              2       4        0.46       700     1000      520     2100   
                                         GEOM     BASIS   MCVARS     RHF  

 PROGRAMS   *        TOTAL    HF-SCF       INT
 CPU TIMES  *         0.26      0.03      0.13
 REAL TIME  *         0.33 SEC
 DISK USED  *        34.65 MB
 **********************************************************************************************************************************


 PROGRAM * OPT (Geometry optimization)     Authors: F. Eckert and H.-J. Werner


 BFGS update of hessian

 *** Long output written to logfile /home/lme/Theoretische_Chemie/Nomodeco/deuterium_calculations/ch4/cdh3.molpro/run/cdh3_1.molpro/cdh3_1.log ***


 Geometry optimization using default procedure for command HF-SCF

 Geometry written to block  1 of record 700

 PQS Optimization using delocalized internal coordinates

 Point group c2v. Number of degrees of freedom:    4

 ITER.   ENERGY(OLD)    ENERGY(NEW)      DE          GRADMAX     GRADNORM    GRADRMS     STEPMAX     STEPLEN     STEPRMS   CPU-time
   1   -40.20895112   -40.20901140    -0.00006028  0.00671653  0.00671653  0.00335826  0.01922217  0.01922217  0.00961109      0.15
   2   -40.20901140   -40.20901170    -0.00000030  0.00047704  0.00047704  0.00027542  0.00127472  0.00127472  0.00073596      0.31
   3   -40.20901170   -40.20901170     0.00000000  0.00000603  0.00000625  0.00000361  0.00001588  0.00001689  0.00000975      0.46

 END OF GEOMETRY OPTIMIZATION.

 Geometry written to block  1 of record 700

 Recomputing wavefunction for reoriented structure

 Current geometry (xyz format, in Angstrom)

    5
 HF-SCF000/6-311G(D,P)  ENERGY=-40.20901170
 C          0.0000003540        0.0000000000       -0.0639808605
 H          0.0000365036        0.0000000000        1.0202766938
 H          1.0222200065        0.0000000000       -0.4254797229
 H         -0.5111485823       -0.8852587877       -0.4253750789
 H         -0.5111485823        0.8852587877       -0.4253750789

 **********************************************************************************************************************************


 **********************************************************************************************************************************
 DATASETS  * FILE   NREC   LENGTH (MB)   RECORD NAMES
              1      19       29.72       500      610      700      900      950      970     1000      129      960     1100   
                                          VAR    BASINP    GEOM    SYMINP    ZMAT    AOBASIS   BASIS     P2S    ABASIS      S 
                                         1400     1410     1200     1210     1080     1600     1650     1300     1700   
                                           T        V       H0       H01     AOSYM     SMH    MOLCAS    ERIS     OPER   

              2       4        0.46       700     1000      520     2100   
                                         GEOM     BASIS   MCVARS     RHF  

 PROGRAMS   *        TOTAL      OPTG    HF-SCF       INT
 CPU TIMES  *         0.80      0.54      0.03      0.13
 REAL TIME  *         1.00 SEC
 DISK USED  *        35.04 MB
 **********************************************************************************************************************************


 PROGRAM * HESSIAN

 PROGRAM * MCKINLEY (Hessian of the energy)     Author: A. Bernhardsson, R. Lindh

 Orbitals from record         2100.2

 Number of closed-shell orbitals:  5 (  4  1 )
 Number of occupied orbitals:      5 (  4  1 )

 Number of electrons= 10     Singlet     Space symmetry=1      Wavefunction type: CLOSED          


 McKinley needed      0.50 seconds of CPU time

 Entering CPHF calculation

 CPHF needed  94 iterations for 15 perturbations.  Total CPU time:    0.12 sec


 HF-SCF hessian saved to record  5300.2

 PROGRAM * FREQUENCIES (Calculation of harmonic vibrational spectra for HF-SCF)


 Permanent Dipole Moment [debye]
     1-   3    0.000000    0.000000    0.000000

 Dipole Moment Norm    0.0000000 [debye]

 Dipole Moment Derivatives [debye/ang]
              1             2             3             4             5             6             7             8
    1    0.00000000    0.00000000    0.00000000    0.00000000    0.00000000    0.00000000    0.00000000    0.00000000
    2    0.00000000    0.00000000    0.00000000    0.00000000    0.00000000    0.00000000    0.00000000    0.00000000
    3    0.00000000    0.00000000    0.00000000    0.00000000    0.00000000    0.00000000    0.00000000    0.00000000
              9            10            11            12            13            14            15
    1    0.00000000    0.00000000    0.00000000    0.00000000    0.00000000    0.00000000    0.00000000
    2    0.00000000    0.00000000    0.00000000    0.00000000    0.00000000    0.00000000    0.00000000
    3    0.00000000    0.00000000    0.00000000    0.00000000    0.00000000    0.00000000    0.00000000

 Projecting out rotations and translations

 Force Constants (Second Derivatives of the Energy) in [a.u.]
                             C1X1        C1Y1        C1Z1        H2X2        H2Y2    
           C1X1          0.5993167
           C1Y1         -0.0000000   0.5993487
           C1Z1          0.0000123  -0.0000000   0.5993093
           H2X2         -0.0543440   0.0000000  -0.0000117   0.0517606
           H2Y2          0.0000000  -0.0543416   0.0000000   0.0000000   0.0517575
           H2Z2         -0.0000107   0.0000000  -0.3407865   0.0000124   0.0000000
           H3X3         -0.3089470  -0.0000000   0.0900361   0.0030057  -0.0000000
           H3Y3          0.0000000  -0.0543435   0.0000000  -0.0000000  -0.0012790
           H3Z3          0.0900361  -0.0000000  -0.0861849   0.0359911  -0.0000000
           H4X4         -0.1180128  -0.1102780  -0.0450184  -0.0002111   0.0018526
           H4Y4         -0.1102783  -0.2453318  -0.0779693   0.0018546   0.0019316
           H4Z4         -0.0450188  -0.0779703  -0.0861690  -0.0179959  -0.0311687
           H5X5         -0.1180128   0.1102780  -0.0450184  -0.0002111  -0.0018526
           H5Y5          0.1102783  -0.2453318   0.0779693  -0.0018546   0.0019316
           H5Z5         -0.0450188   0.0779703  -0.0861690  -0.0179959   0.0311687
                             H2Z2        H3X3        H3Y3        H3Z3        H4X4    
           H2Z2          0.3696866
           H3X3         -0.0002563   0.3343474
           H3Y3         -0.0000000   0.0000000   0.0517592
           H3Z3         -0.0096334  -0.0999318  -0.0000000   0.0871006
           H4X4          0.0001273  -0.0142030  -0.0287681  -0.0130477   0.1224307
           H4Y4          0.0002214   0.0008271   0.0019316   0.0016746   0.1223951
           H4Z4         -0.0096334   0.0050760   0.0121398   0.0043588   0.0499647
           H5X5          0.0001273  -0.0142030   0.0287681  -0.0130477   0.0099963
           H5Y5         -0.0002214  -0.0008271   0.0019316  -0.0016746   0.0147985
           H5Z5         -0.0096334   0.0050760  -0.0121398   0.0043588   0.0079741
                             H4Y4        H4Z4        H5X5        H5Y5        H5Z5    
           H4Y4          0.2637392
           H4Z4          0.0865362   0.0870872
           H5X5         -0.0147985   0.0079741   0.1224307
           H5Y5         -0.0222706   0.0104629  -0.1223951   0.2637392
           H5Z5         -0.0104629   0.0043562   0.0499647  -0.0865362   0.0870872


 Atomic Masses
     1-   5   12.011000    2.014000    1.007940    1.007940    1.007940

 Mass weighted Second Derivative Matrix
                             C1X1        C1Y1        C1Z1        H2X2        H2Y2    
           C1X1          0.0498973
           C1Y1         -0.0000000   0.0499000
           C1Z1          0.0000010  -0.0000000   0.0498967
           H2X2         -0.0110492   0.0000000  -0.0000024   0.0257004
           H2Y2          0.0000000  -0.0110487   0.0000000   0.0000000   0.0256988
           H2Z2         -0.0000022   0.0000000  -0.0692888   0.0000062   0.0000000
           H3X3         -0.0887927  -0.0000000   0.0258768   0.0021096  -0.0000000
           H3Y3          0.0000000  -0.0156186   0.0000000  -0.0000000  -0.0008977
           H3Z3          0.0258768  -0.0000000  -0.0247699   0.0252608  -0.0000000
           H4X4         -0.0339174  -0.0316944  -0.0129385  -0.0001482   0.0013003
           H4Y4         -0.0316944  -0.0705094  -0.0224087   0.0013017   0.0013557
           H4Z4         -0.0129386  -0.0224090  -0.0247653  -0.0126307  -0.0218762
           H5X5         -0.0339174   0.0316944  -0.0129385  -0.0001482  -0.0013003
           H5Y5          0.0316944  -0.0705094   0.0224087  -0.0013017   0.0013557
           H5Z5         -0.0129386   0.0224090  -0.0247653  -0.0126307   0.0218762
                             H2Z2        H3X3        H3Y3        H3Z3        H4X4    
           H2Z2          0.1835584
           H3X3         -0.0001799   0.3317136
           H3Y3         -0.0000000   0.0000000   0.0513515
           H3Z3         -0.0067613  -0.0991446  -0.0000000   0.0864144
           H4X4          0.0000894  -0.0140911  -0.0285415  -0.0129449   0.1214663
           H4Y4          0.0001554   0.0008206   0.0019164   0.0016614   0.1214309
           H4Z4         -0.0067613   0.0050360   0.0120442   0.0043245   0.0495711
           H5X5          0.0000894  -0.0140911   0.0285415  -0.0129449   0.0099175
           H5Y5         -0.0001554  -0.0008206   0.0019164  -0.0016614   0.0146819
           H5Z5         -0.0067613   0.0050360  -0.0120442   0.0043245   0.0079113
                             H4Y4        H4Z4        H5X5        H5Y5        H5Z5    
           H4Y4          0.2616616
           H4Z4          0.0858545   0.0864012
           H5X5         -0.0146819   0.0079113   0.1214663
           H5Y5         -0.0220951   0.0103805  -0.1214309   0.2616616
           H5Z5         -0.0103805   0.0043219   0.0495711  -0.0858545   0.0864012


 Mass Weighted 2nd Derivative Matrix Eigenvalues
     1-  10    0.000000    0.000000    0.000000    0.000000    0.000000    0.000000    0.062011    0.062012    0.079185    0.097540
    11-  15    0.097540    0.210996    0.382751    0.400560    0.400594

 Mass Weighted 2nd Derivative Matrix Eigenvectors
              1             2             3             4             5             6             7             8
    1   -0.00931407    0.00878937    0.02116242   -0.01169133    0.33411096    0.77693926    0.00000000   -0.41303200
    2    0.05926552    0.16370281    0.27628856   -0.06800272    0.71083238   -0.31537306   -0.41302774    0.00000000
    3    0.77930995    0.27680805   -0.02117285   -0.07986743   -0.10552282    0.05096445    0.00000000    0.00003979
    4   -0.02210732   -0.00248044    0.70099336   -0.03294387   -0.13450512    0.31261346    0.00000000    0.59310065
    5    0.04151991    0.19928606    0.12059179    0.70100848    0.22960359   -0.09323026    0.59309972    0.00000000
    6    0.31911793    0.11334951   -0.00869309   -0.03270374   -0.04320118    0.02086947    0.00000000   -0.00001914
    7    0.00161659    0.00398011   -0.15716486    0.00325428    0.16078183    0.22637361    0.00000000    0.06298112
    8   -0.19601588    0.53652716    0.04036789   -0.28916607    0.13568226   -0.07221850    0.32863484    0.00000000
    9    0.23795622    0.08424229   -0.46788788   -0.00435730    0.15039040    0.01845404    0.00000000    0.45433925
   10   -0.17947976    0.45456107   -0.18994846   -0.08123161    0.08738198    0.25028437   -0.11505152    0.26221518
   11    0.11766253   -0.24392183    0.09723518   -0.14278050    0.26278282   -0.11363284    0.12938162   -0.11504263
   12    0.22962482    0.15453324    0.22906858    0.38846076   -0.15655912    0.03365964   -0.39350162   -0.22722477
   13    0.18271043   -0.44660167   -0.12428673    0.08773632    0.23414462    0.20246210    0.11505152    0.26221518
   14    0.11766253   -0.24392183    0.09723518   -0.14278050    0.26278282   -0.11363284    0.12938162    0.11504263
   15    0.20968396    0.00178654    0.22045418   -0.45351437   -0.08555063   -0.00782288    0.39350162   -0.22722477
              9            10            11            12            13            14            15
    1   -0.00004615   -0.14190146    0.00000000   -0.00001792   -0.00041738   -0.30537695    0.00000000
    2    0.00000000    0.00000000   -0.14191797    0.00000000    0.00000000    0.00000000   -0.30537483
    3   -0.36658878    0.00001978    0.00000000   -0.36120328    0.17503876   -0.00022544    0.00000000
    4    0.00001375   -0.19826851    0.00000000    0.00003778   -0.00001799   -0.01142501    0.00000000
    5    0.00000000    0.00000000   -0.19823821    0.00000000    0.00000000    0.00000000   -0.01142550
    6   -0.14689880    0.00002153    0.00000000    0.92647647   -0.04394036    0.00005257    0.00000000
    7    0.20058724   -0.16229439    0.00000000    0.05734341    0.53937137    0.73035832    0.00000000
    8    0.00000000    0.00000000    0.67567330    0.00000000    0.00000000    0.00000000   -0.01758851
    9    0.49103640   -0.37970247    0.00000000   -0.02091561   -0.18111603   -0.26349356    0.00000000
   10   -0.10022369    0.46620155   -0.36283096   -0.02866748   -0.26895258    0.16997814    0.32423121
   11   -0.17370897   -0.36283802    0.04722479   -0.04964501   -0.46576375    0.32486683    0.54394825
   12    0.49104085    0.18980188    0.32884155   -0.02091548   -0.18050386    0.13209873    0.22835845
   13   -0.10022369    0.46620155    0.36283096   -0.02866748   -0.26895258    0.16997814   -0.32423121
   14    0.17370897    0.36283802    0.04722479    0.04964501    0.46576375   -0.32486683    0.54394825
   15    0.49104085    0.18980188   -0.32884155   -0.02091548   -0.18050386    0.13209873   -0.22835845

   Low Vibration      Wavenumber
        Nr             [1/cm] 
        1                0.00
        2                0.00
        3                0.00
        4                0.00
        5                0.00
        6                0.00

     Vibration        Wavenumber
        Nr             [1/cm] 
        1             1280.08
        2             1280.09
        3             1446.53
        4             1605.44
        5             1605.44
        6             2361.25
        7             3180.26
        8             3253.40
        9             3253.54

 FREQUENCIES * CALCULATION OF NORMAL MODES FOR HF-SCF


 Atomic Coordinates

  Nr  Atom  Charge       X              Y              Z

   1   C1    6.00    0.000000669    0.000000000   -0.120906304
   2   H2    1.00    0.000068982    0.000000000    1.928043523
   3   H3    1.00    1.931715851    0.000000000   -0.804040148
   4   H4    1.00   -0.965930829   -1.672896658   -0.803842399
   5   H5    1.00   -0.965930829    1.672896658   -0.803842399

 Gradient norm at reference geometry: 0.63285D-05

 Normal Modes

                              1 A``       2 A`        3 A`        4 A`        5 A``
 Wavenumbers [cm-1]         1280.08     1280.09     1446.53     1605.44     1605.44
 Intensities [km/mol]          0.00        0.00        0.00        0.00        0.00
 Intensities [relative]        0.00        0.00        0.00        0.00        0.00
           C1X1             0.00000    -0.11918    -0.00001    -0.04094     0.00000
           C1Y1            -0.11918    -0.00000     0.00000    -0.00000    -0.04095
           C1Z1            -0.00000     0.00001    -0.10578     0.00001    -0.00000
           H2X2            -0.00000     0.41793     0.00001    -0.13971     0.00000
           H2Y2             0.41792     0.00000    -0.00000    -0.00000    -0.13969
           H2Z2            -0.00000    -0.00001    -0.10351     0.00002    -0.00000
           H3X3            -0.00000     0.06273     0.19980    -0.16165     0.00000
           H3Y3             0.32734     0.00000    -0.00000     0.00000     0.67301
           H3Z3            -0.00000     0.45255     0.48910    -0.37820     0.00000
           H4X4            -0.11460     0.26118    -0.09983     0.46436    -0.36140
           H4Y4             0.12887    -0.11459    -0.17302    -0.36141     0.04704
           H4Z4            -0.39195    -0.22633     0.48910     0.18905     0.32754
           H5X5             0.11460     0.26118    -0.09983     0.46436     0.36140
           H5Y5             0.12887     0.11459     0.17302     0.36141     0.04704
           H5Z5             0.39195    -0.22633     0.48910     0.18905    -0.32754

                              6 A`        7 A`        8 A`        9 A``
 Wavenumbers [cm-1]         2361.25     3180.26     3253.40     3253.54
 Intensities [km/mol]          0.00        0.00        0.00        0.00
 Intensities [relative]        0.00        0.00        0.00        0.00
           C1X1            -0.00001    -0.00012    -0.08811    -0.00000
           C1Y1            -0.00000    -0.00000     0.00000    -0.08811
           C1Z1            -0.10422     0.05051    -0.00007    -0.00000
           H2X2             0.00003    -0.00001    -0.00805    -0.00000
           H2Y2            -0.00000    -0.00000     0.00000    -0.00805
           H2Z2             0.65284    -0.03096     0.00004     0.00000
           H3X3             0.05712     0.53724     0.72748     0.00000
           H3Y3            -0.00000    -0.00000     0.00000    -0.01752
           H3Z3            -0.02083    -0.18040    -0.26245    -0.00000
           H4X4            -0.02855    -0.26789     0.16931     0.32295
           H4Y4            -0.04945    -0.46393     0.32358     0.54180
           H4Z4            -0.02083    -0.17979     0.13158     0.22746
           H5X5            -0.02855    -0.26789     0.16931    -0.32295
           H5Y5             0.04945     0.46393    -0.32358     0.54180
           H5Z5            -0.02083    -0.17979     0.13158    -0.22746


 Normal Modes of low/zero frequencies

                                  1           2           3           4           5
 Wavenumbers [cm-1]            0.00        0.00        0.00        0.00        0.00
 Intensities [km/mol]          0.00        0.00        0.00        0.00        0.00
 Intensities [relative]        0.00        0.00        0.00        0.00        0.00
           C1X1            -0.00269     0.00254     0.00611    -0.00337     0.09641
           C1Y1             0.01710     0.04724     0.07972    -0.01962     0.20511
           C1Z1             0.22486     0.07987    -0.00611    -0.02305    -0.03045
           H2X2            -0.01558    -0.00175     0.49395    -0.02321    -0.09478
           H2Y2             0.02926     0.14043     0.08497     0.49396     0.16179
           H2Z2             0.22486     0.07987    -0.00613    -0.02304    -0.03044
           H3X3             0.00161     0.00396    -0.15654     0.00324     0.16015
           H3Y3            -0.19524     0.53441     0.04021    -0.28802     0.13515
           H3Z3             0.23702     0.08391    -0.46604    -0.00434     0.14980
           H4X4            -0.17877     0.45277    -0.18920    -0.08091     0.08704
           H4Y4             0.11720    -0.24296     0.09685    -0.14222     0.26175
           H4Z4             0.22872     0.15392     0.22816     0.38693    -0.15594
           H5X5             0.18199    -0.44484    -0.12380     0.08739     0.23322
           H5Y5             0.11720    -0.24296     0.09685    -0.14222     0.26175
           H5Z5             0.20886     0.00178     0.21958    -0.45172    -0.08521

                                  6
 Wavenumbers [cm-1]            0.00
 Intensities [km/mol]          0.00
 Intensities [relative]        0.00
           C1X1             0.22418
           C1Y1            -0.09100
           C1Z1             0.01471
           H2X2             0.22028
           H2Y2            -0.06569
           H2Z2             0.01471
           H3X3             0.22548
           H3Y3            -0.07193
           H3Z3             0.01838
           H4X4             0.24930
           H4Y4            -0.11318
           H4Z4             0.03353
           H5X5             0.20166
           H5Y5            -0.11318
           H5Z5            -0.00779


 Frequencies dumped to record   5400.2
 Frequency information read from record  5400.2

 Zero point energy:  0.04389129 [H]     9633.02 [1/CM]      115.24 [KJ/MOL]


 **********************************************************************************************************************************
 DATASETS  * FILE   NREC   LENGTH (MB)   RECORD NAMES
              1      19       29.72       500      610      700      900      950      970     1000      129      960     1100   
                                          VAR    BASINP    GEOM    SYMINP    ZMAT    AOBASIS   BASIS     P2S    ABASIS      S 
                                         1400     1410     1200     1210     1080     1600     1650     1300     1700   
                                           T        V       H0       H01     AOSYM     SMH    MOLCAS    ERIS     OPER   

              2       7        0.48       700     1000      520     2100     5300     5450     5400   
                                         GEOM     BASIS   MCVARS     RHF     HESS     NMOD     FREQ   

              4       5        0.28      4100     4000     4200     4300     4400   

 PROGRAMS   *        TOTAL      FREQ      OPTG    HF-SCF       INT
 CPU TIMES  *         1.44      0.64      0.54      0.03      0.13
 REAL TIME  *         1.65 SEC
 DISK USED  *        35.04 MB
 **********************************************************************************************************************************

 Dump information in style MOLDEN to cdh3.molden                                                                     

 Molecular orbitals read from record     2100.2  Type=RHF/CANONICAL  
 Occupation numbers read from record     2100.2  Type=RHF/RHF  
 Orbital energies read from record       2100.2  Type=RHF/CANONICAL  
 Redundancy group numbers read from rec  2100.2  Type=RHF/RHF  

 DUMP ORBITAL  1.1 AS ORBITAL    1  occ=    2.0000  eig=  -11.2050  GROUP=   2
 DUMP ORBITAL  2.1 AS ORBITAL    2  occ=    2.0000  eig=   -0.9450  GROUP=   2
 DUMP ORBITAL  3.1 AS ORBITAL    3  occ=    2.0000  eig=   -0.5461  GROUP=   2
 DUMP ORBITAL  4.1 AS ORBITAL    4  occ=    2.0000  eig=   -0.5461  GROUP=   2
 DUMP ORBITAL  1.2 AS ORBITAL    5  occ=    2.0000  eig=   -0.5461  GROUP=   2

 Total charge:      10.000000
 Frequency information read from record  5400.2

 **********************************************************************************************************************************

 HF/6-311G(D,P)//HF/6-311G(D,P) energy=    -40.209011700996

    OPTG(HF-SCF)          HF-SCF
    -40.20901170    -40.20895112
 **********************************************************************************************************************************
 Molpro calculation terminated
