[Molden Format]
[Molpro variables]
_NUMVAR=  1070.000000000000    
_AVOGAD= 0.6022140760000000E+24
_BOLTZ= 0.1380649000000000E-22
_CLIGHTSI=  299792458.0000000    
_JOULE= 0.4359744722207100E-17
_JPCAL=  4.184000000000000    
_PLANCK= 0.6626070150000000E-33
_BOHR= 0.5291772109030000E-10
_ECHARG= 0.1602176634000000E-18
_ENULL= 0.8854187812800001E-11
_MU= 0.1660539066600000E-26
_EMASS= 0.9109383701500001E-30
_AMU2AU=  1822.888486217313    
_CLIGHT=  29979245800.00000    
_EV= 0.3674932217565494E-01
_KJOULE= 0.3808798847133432E-03
_KJOULE/MOL= 0.3808798847133432E-03
_CM= 0.4556335252912009E-05
_CM-1= 0.4556335252912009E-05
_DEB2SI= 0.3335640951981520E-29
_KCAL= 0.1593601437640628E-02
_KCAL/MOL= 0.1593601437640628E-02
_KELVIN= 0.3166811563455608E-05
_HERTZ= 0.1519829846057038E-15
_HZ= 0.1519829846057038E-15
_TOA= 0.5291772109030000    
_TOANG= 0.5291772109030000    
_TORAD= 0.1745329251994330E-01
_TOCM=  219474.6313631965    
_TODEBYE=  2.541746473194078    
_TOE= 0.4803204712570263E-09
_TOEV=  27.21138624598803    
_TOHERTZ=  6579683920501656.    
_TOHZ=  6579683920501656.    
_TOK=  315775.0248040668    
_TOKCAL=  627.5094740630558    
_TOKELVIN=  315775.0248040668    
_TOKJ=  2625.499639479825    
_TOKJOULE=  2625.499639479825    
_TOKG= 0.1660539066600000E-26
_ANG=  1.889726124625770    
_ANGSTROM=  1.889726124625770    
_RPAREF=  0.000000000000000    
_RPADISS=  0.000000000000000    
_IGNORE_UNDEF=  2.000000000000000    
_STRICTCHECK=  0.000000000000000    
!SEWARD=  0.000000000000000    
!MULTI=  0.000000000000000    
!DFMULTI=  0.000000000000000    
!NUMHESS=  0.000000000000000    
_SEW_ONEEL=  0.000000000000000    
_CPPDONE=FALSE
_DKROLL_DONE=  0.000000000000000    
_FNUC_DONE=  0.000000000000000    
_FOCKDONE=TRUE
_GRADONE=FALSE
_HESSDONE=TRUE
_INTDONE=TRUE
_SCFDONE=TRUE
_MODUL_BLOCK=FALSE
_MODUL_SLATER=TRUE
_MODUL_MRCC=FALSE
_MODUL_NBO6=FALSE
_MODUL_NECI=FALSE
_MODUL_AIMS=TRUE
_MODUL_HDF5=FALSE
_MODUL_GECCO=FALSE
_ISWINDOWS=FALSE
_MRCC_EXEC=
_FITC_AO_SAVED=FALSE
_FITC_MO_SAVED=FALSE
_LSTYP=SEWARD
_INTYP=INTS
_GEOMTYP=XYZ
_GRADTYP=ALASKA
_DIRECT=FALSE
_DKHO= -1.000000000000000    
_FNUC=  0.000000000000000    
_SYNCM=  0.000000000000000    
_BASIS=6-311G(D,P)
_ZCENTRE=MASS
_ZORIENT=  1.000000000000000    
_NELEC=  10.00000000000000    
!SPIN=  0.000000000000000    
_OPTCONV= 0.1689049337668990E-04
_QSDSTEP=  0.000000000000000    
_QSDIRC=  0.000000000000000    
_PROGRAM=FREQ
_CPUSTEP= 0.6400000000000001    
_SYSSTEP= 0.2000000000000002E-01
_WALLSTEP= 0.6500000000000000    
!DFSCF=  0.000000000000000    
!SCSGRD=  0.000000000000000    
_NCEN=  5.000000000000000    
_CPUTOT=  1.440000000000000    
_DFTEXFAC=  1.000000000000000    
_DMX=-0.1590508201365984E-04
_DMY=  0.000000000000000    
_DMZ=-0.1124535962149231E-04
_DMX_SCF=-0.1590508201365984E-04
_DMY_SCF=  0.000000000000000    
_DMZ_SCF=-0.1124535962149231E-04
_FREQUENCIES= 0.3452477759291195E-04
_HOMO=  1.200000000000000    
_EHOMO=-0.5460853147583377    
_LUMO=  5.100000000000000    
_ELUMO= 0.1622569471026090    
_ENERGY= -40.20901170099557    
_ENERGY_METHOD=HF
_ENERGY_BASIS=6-311G(D,P)
_GEOMETRY_METHOD=HF
_GEOMETRY_BASIS=6-311G(D,P)
_ENUC=  13.50669601142357    
_GRADENERG= -40.20901170167371    
_GRADEXFAC=  9999.000000000000    
_GRADMETHOD=  1.000000000000000    
_NMRMETHOD=  0.000000000000000    
_NMRMAGNET=  0.000000000000000    
_VIRIAL= 0.2469464221450890E-04
!GRID_FREEZE= -1.000000000000000    
!NEESE_INDEX=  0.000000000000000    
_ITERATIONS=  6.000000000000000    
_LASTNELEC=  10.00000000000000    
_LASTSPIN=  0.000000000000000    
_LASTSYM=  1.000000000000000    
_MPP_PROG=  0.000000000000000    
_MSNSTATES=  0.000000000000000    
_RS2PHASE=  0.000000000000000    
_NPROC_MPP=  1.000000000000000    
_NPROC_SMP=  6.000000000000000    
_NUMSTEP=  0.000000000000000    
_OPTCONVMX= 0.1588367518724924E-04
_OPTCONVRMS= 0.9751730897777508E-05
_OPTGRAD= 0.6248977815701289E-05
_OPTGRADMX= 0.6026215486500937E-05
_OPTGRADRMS= 0.3607849024055139E-05
!GMAXLAST= 0.6026215486500937E-05
!DMAXLAST= 0.1588367518724924E-04
!DELAST= 0.3001114023959417E-06
_OPTSTEP=  3.000000000000000    
_ORBITAL=  2100.200000000000    
_PI=  3.141592653589793    
_SEIG_MIN= 0.1247901404044295E-01
_SEWPROP=TRUE
_STATUS=  1.000000000000000    
_SYSTOT= 0.2200000000000000    
_VERSION=  2024001.000000000    
_WALLTOT=  1.650000000000000    
_ZPE= 0.4389128535418135E-01
_DATE=30-Sep-24
_LASTORB=0
_OUTPUT=/home/lme/Theoretische_Chemie/Nomodeco/deuterium_calculations/ch4/cdh3.molpro/run/cdh3_1.molpro/cdh3_1.out
_PGROUP=Cs
_TIME=10:47:29
_LIBMOL=/usr/local/molpro/molpro_2024.1.0_sockets/lib/
_VIGRDC=  0.000000000000000    
!VIBCNT=  0.000000000000000    
!SURFREC=  0.000000000000000    
!XSURFREC=  0.000000000000000    
!XPOLYREC=  0.000000000000000    
!ROTREC=  0.000000000000000    
!POLYREC=  0.000000000000000    
!DIPREC=  0.000000000000000    
!DIP4DREC=  0.000000000000000    
!DIPROT=  0.000000000000000    
!DIP4DROT=  0.000000000000000    
!PTREC=  0.000000000000000    
!PT4DREC=  0.000000000000000    
!VSCFREC=  0.000000000000000    
!VCIREC=  0.000000000000000    
!PVCIREC=  0.000000000000000    
!VMP2REC=  0.000000000000000    
!VMCSCFREC=  0.000000000000000    
!VMRCIREC=  0.000000000000000    
!VIBSTATEREC=  0.000000000000000    
!VIBSTATECNT=  0.000000000000000    
!VIBINFO=  0.000000000000000    
!GAREC=  0.000000000000000    
!SCFORB=  21002.00000000000    
!DEFCORE=  1.000000000000000    
!SCORE=  0.000000000000000    
!NEWMOL=  0.000000000000000    
!NEWSYM=  0.000000000000000    
_SLFILES=slscratch
_NGSSTO=  9.000000000000000    
_SIN=SIN
_COS=COS
_TAN=TAN
_ACOS=ACOS
_ASIN=ASIN
_ATAN=ATAN
_COSH=COSH
_SINH=SINH
_TANH=TANH
_ABS=ABS
_MOD=MOD
_ERF=ERF
_REFC=REFC
_ERFC=ERFC
_HYPOT=HYPOT
_J0=J0
_J1=J1
_JN=JN
_GAMMA=GAMMA
_LGAMMA=LGAMMA
_Y0=Y0
_Y1=Y1
_YN=YN
_EXP=EXP
_LOG=LOG
_LOG10=LOG10
_SQRT=SQRT
_INT=INT
_NINT=NINT
_MAX=MAX
_MIN=MIN
_COSMO=  0.000000000000000    
_COSMOIT=  0.000000000000000    
_COSMOES=  0.000000000000000    
_COSMOEDS=  0.000000000000000    
_COSMOEC=  0.000000000000000    
_COSMOEDCORR=  0.000000000000000    
_FEPSI=  1.000000000000000    
_SL_IsMM=  0.000000000000000    
_SL_NSYM=  2.000000000000000    
_SL_System_BitSw=  0.000000000000000    
_SL_Unique_atoms=  0.000000000000000    
_SL_GRAD=  0.000000000000000    
_SL_MAXUPD_Hess=  5.000000000000000    
_SL_N_PRINT_COD=  5.000000000000000    
_SL_PRINT_CODES=  0.000000000000000    
_SL_BasType=  0.000000000000000    
_SL_Energy_Pred=  0.000000000000000    
_SL_New_Coords=  0.000000000000000    
_SL_Total_Nuclea=  0.000000000000000    
_SL_Highest_Mltp=  0.000000000000000    
_SL_Ref_Geom=  0.000000000000000    
_SL_Symmetry_ope=  1.000000000000000    
_SL_agrad=  0.000000000000000    
_SL_GrdMax=  0.000000000000000    
_SL_GrdNorm=  0.000000000000000    
_SL_GrdRMS=  0.000000000000000    
_SL_Hss_Q=  0.000000000000000    
_SL_Hss_X=  0.000000000000000    
_SL_BMxOld=  0.000000000000000    
_SL_KtB=  0.000000000000000    
_SL_TROld=  0.000000000000000    
_SL_No_of_Intern=  0.000000000000000    
_SL_Hess=  0.000000000000000    
_SL_K=  0.000000000000000    
!LATTICE= -1.000000000000000    
!NEWLATTICE=  0.000000000000000    
!LATGRAD_VAR=FALSE
!SEW_LATTICE=  1.000000000000000    
!AIC_ONEEL=  0.000000000000000    
!LOCAL=  0.000000000000000    
!SAVEDOM= -1.000000000000000    
!RESTDOM= -1.000000000000000    
!SAVEDOM_HF= -1.000000000000000    
!RESTDOM_HF= -1.000000000000000    
!HESSREC=  5300.200000000000    
!FREQREC=  5400.200000000000    
!NMODREC=  5450.200000000000    
!GTASKS=  0.000000000000000    
!HTASKS=  0.000000000000000    
!SAVEDOM_EOM= -1.000000000000000    
!RESTDOM_EOM= -1.000000000000000    
!GRADSTATE= -1.000000000000000    
!DEBUG=  0.000000000000000    
!CFIT_CPHF=  0.000000000000000    
!RDOMAUX_CPHF=  0.000000000000000    
!THRAO_CPHF= 0.1000000000000000E-11
!THRMO_CPHF= 0.1000000000000000E-11
!THROV_CPHF= 0.1000000000000000E-13
!THRSW_CPHF= 0.1000000000000000E-11
!THRPROD_CPHF= 0.1000000000000000E-11
!THRAOPR_CPHF= 0.1000000000000000E-11
!CFIT_SCFGRD=  0.000000000000000    
!RDOMAUX_SCFGRD=  0.000000000000000    
!THRAO_SCFGRD= 0.1000000000000000E-11
!THRMO_SCFGRD= 0.1000000000000000E-11
!THROV_SCFGRD= 0.1000000000000000E-13
!THRSW_SCFGRD= 0.1000000000000000E-11
!THRPROD_SCFGRD= 0.1000000000000000E-11
!THRAOPR_SCFGRD= 0.1000000000000000E-11
!LOCFIT_SCF=  0.000000000000000    
!LOCFIT_MP2=  0.000000000000000    
_RIDOM=  0.000000000000000    
!CC2_METHOD=  0.000000000000000    
_BASIS2006=FALSE
_SVDDEL= -1.000000000000000    
_SVDDELA= -1.000000000000000    
_SVDDELP= -1.000000000000000    
_SVDDELF= -1.000000000000000    
_SVDDELS= -1.000000000000000    
_SVDDEL_ABS= -1.000000000000000    
_SVDDELA_ABS= -1.000000000000000    
_SVDDELP_ABS= -1.000000000000000    
_SVDDELF_ABS= -1.000000000000000    
_SVDDELS_ABS= -1.000000000000000    
_MAXBASIS=  0.000000000000000    
!OPT_CONICAL=  0.000000000000000    
!CLEARSP_JGRID=  0.000000000000000    
_GRDHYBR=  0.000000000000000    
_STATEGRAD=  1.000000000000000    
_4EXT_NDISKS=  1.000000000000000    
!EMBEDFLAG=  1.000000000000000    
!EMBED=FALSE
!EMBED_F12=FALSE
!EMBEDNUC=  0.000000000000000    
_EMBEDENERGY=  0.000000000000000    
!EMBED_DFC=FALSE
!NUM_VOIDS=  0.000000000000000    
_IBODY=  0.000000000000000    
_EMBE_CORR=  0.000000000000000    
!EMBED_PROJ=FALSE
!EMB_PROJ_ZMU=  1000000.000000000    
!CORRECTION_HF=  0.000000000000000    
!EMBED_AORB=  0.000000000000000    
!EMBED_NACORR=  0.000000000000000    
!EMBED_MP2=FALSE
!EMBED_TRUNC_PERTURBATION=FALSE
!EMBED_FROZEN=  0.000000000000000    
!EMBED_ACTIVE=  0.000000000000000    
_CHANGE_BASIS=FALSE
_RESTORE_BASIS=FALSE
_FIX_EMBED_GUESS=FALSE
_EMBED_SCF=FALSE
_NEOBAS=FALSE
_NEOOVE=FALSE
_PRINEO=FALSE
_HUZINAGA_T=FALSE
_HUZINAGA_F=FALSE
_HUZINAGA=FALSE
_HUZINAGA_CORRECT=FALSE
!FASTLATGRAD=  1.000000000000000    
!FASTVLAMBDA= -1.000000000000000    
!IFORCE= -1.000000000000000    
!USESYM= -1.000000000000000    
_SINDEX=  0.000000000000000    
_AVDOM_OSV=  0.000000000000000    
_AVDOM_PNO=  0.000000000000000    
_AVDOM_PNOCC=  0.000000000000000    
_AVDOM_TNO=  0.000000000000000    
_AVDOM_TNOIT=  0.000000000000000    
_AVDOM_PAO=  0.000000000000000    
_AVDOM_LMO=  0.000000000000000    
_CC2OSV_FLAG=  0.000000000000000    
_EOMCCSD_CONV=FALSE
_TMADC2_FLAG=FALSE
_PROPADC2_FLAG=FALSE
_LEN_VirQ=  0.000000000000000    
_GRDCC2LR_FLAG=FALSE
_GRDADC2_FLAG=FALSE
_RO_VGLOBAL=  0.000000000000000    
_OPT=FALSE
_FREQ=FALSE
_HESS=FALSE
_CMRCC_callName=EMPTY
_CMRCC_callCount=  0.000000000000000    
_GECCO_CIROOT=  1.000000000000000    
_SYM_CATION=  2.000000000000000    
_MON_A=FALSE
_MON_B=FALSE
_MAXGEOM=  100.0000000000000    
!MAXGEOM=  100.0000000000000    
_NCORE=  0.000000000000000    
_NLARGECORE=  0.000000000000000    
GX1= 0.3540455926630713E-06
GY1=  0.000000000000000    
GZ1=-0.6398086049507620E-01
GX2= 0.3650359103965363E-04
GY2=  0.000000000000000    
GZ2=  1.020276693842805    
GX3=  1.022220006515065    
GY3=  0.000000000000000    
GZ3=-0.4254797229424482    
GX4=-0.5111485822771008    
GY4=-0.8852587876955864    
GZ4=-0.4253750788987624    
GX5=-0.5111485822771008    
GY5= 0.8852587876955864    
GZ5=-0.4253750788987624    
C1X1= 0.6690492057640199E-06
C1Y1=  0.000000000000000    
C1Z1=-0.1209063035535824    
H2X2= 0.6898178963028866E-04
H2Y2=  0.000000000000000    
H2Z2=  1.928043522701557    
H3X3=  1.931715851426643    
H3Y3=  0.000000000000000    
H3Z3=-0.8040401479428791    
H4X4=-0.9659308294944623    
H4Y4= -1.672896658162888    
H4Z4=-0.8038423993597394    
H5X5=-0.9659308294944623    
H5Y5=  1.672896658162888    
H5Z5=-0.8038423993597394    
[Atoms] Angs
C     1    6         0.0000003540        0.0000000000       -0.0639808605
H     2    1         0.0000365036        0.0000000000        1.0202766938
H     3    1         1.0222200065        0.0000000000       -0.4254797229
H     4    1        -0.5111485823       -0.8852587877       -0.4253750789
H     5    1        -0.5111485823        0.8852587877       -0.4253750789
[GTO]
   1 0
 s    6  1.00
  0.4563240000D+04  0.1966650249D-02
  0.6820240000D+03  0.1523060193D-01
  0.1549730000D+03  0.7612690966D-01
  0.4445530000D+02  0.2608010331D+00
  0.1302900000D+02  0.6164620782D+00
  0.1827730000D+01  0.2210060280D+00
 s    3  1.00
  0.2096420000D+02  0.1146600807D+00
  0.4803310000D+01  0.9199996477D+00
  0.1459330000D+01 -0.3030682134D-02
 s    1  1.00
  0.4834560000D+00  0.1000000000D+01
 s    1  1.00
  0.1455850000D+00  0.1000000000D+01
 p    3  1.00
  0.2096420000D+02  0.4024869267D-01
  0.4803310000D+01  0.2375939567D+00
  0.1459330000D+01  0.8158538515D+00
 p    1  1.00
  0.4834560000D+00  0.1000000000D+01
 p    1  1.00
  0.1455850000D+00  0.1000000000D+01
 d    1  1.00
  0.6260000000D+00  0.1000000000D+01
  
   2 0
 s    3  1.00
  0.3386500000D+02  0.2549381454D-01
  0.5094790000D+01  0.1903731086D+00
  0.1158790000D+01  0.8521614860D+00
 s    1  1.00
  0.3258400000D+00  0.1000000000D+01
 s    1  1.00
  0.1027410000D+00  0.1000000000D+01
 p    1  1.00
  0.7500000000D+00  0.1000000000D+01
  
   3 0
 s    3  1.00
  0.3386500000D+02  0.2549381454D-01
  0.5094790000D+01  0.1903731086D+00
  0.1158790000D+01  0.8521614860D+00
 s    1  1.00
  0.3258400000D+00  0.1000000000D+01
 s    1  1.00
  0.1027410000D+00  0.1000000000D+01
 p    1  1.00
  0.7500000000D+00  0.1000000000D+01
  
   4 0
 s    3  1.00
  0.3386500000D+02  0.2549381454D-01
  0.5094790000D+01  0.1903731086D+00
  0.1158790000D+01  0.8521614860D+00
 s    1  1.00
  0.3258400000D+00  0.1000000000D+01
 s    1  1.00
  0.1027410000D+00  0.1000000000D+01
 p    1  1.00
  0.7500000000D+00  0.1000000000D+01
  
   5 0
 s    3  1.00
  0.3386500000D+02  0.2549381454D-01
  0.5094790000D+01  0.1903731086D+00
  0.1158790000D+01  0.8521614860D+00
 s    1  1.00
  0.3258400000D+00  0.1000000000D+01
 s    1  1.00
  0.1027410000D+00  0.1000000000D+01
 p    1  1.00
  0.7500000000D+00  0.1000000000D+01


[MO]
 Sym=      1.1
 Ene=     -11.2050
 Spin= Alpha
 Occup=    2.000000
1 0.56330992269857
2 0.46653430432228
3 0.004521726874806
4 -0.001090889597121
5 0.000000015915009
6 0.0
7 0.000000011254939
8 -0.000000099175330
9 0.0
10 -0.000000070132045
11 0.000000021738534
12 0.0
13 0.000000015345860
14 -0.000000013095096
15 0.000000039436477
16 -0.000000026341380
17 0.0
18 0.000000021623331
19 0.0
20 0.000374094023823
21 0.000061445909219
22 0.000217054541470
23 0.000000008873523
24 0.0
25 0.000007255575771
26 0.000374094025308
27 0.000061445888558
28 0.000217054524570
29 0.000006843323485
30 0.0
31 -0.000002410901651
32 0.000374106827362
33 0.000061362816640
34 0.000217101813330
35 -0.000003436588711
36 -0.000005967011104
37 -0.000002429740448
38 0.000374106827362
39 0.000061362816640
40 0.000217101813330
41 -0.000003436588711
42 0.000005967011104
43 -0.000002429740448
 Sym=      2.1
 Ene=      -0.9450
 Spin= Alpha
 Occup=    2.000000
1 -0.10299235531933
2 -0.16962059433690
3 0.42313907888686
4 0.26119962609564
5 -0.000004790068698
6 0.0
7 -0.000003386714360
8 -0.000005386553917
9 0.0
10 -0.000003808464276
11 -0.000001150118857
12 0.0
13 -0.000000813335731
14 -0.000000046617237
15 0.000000145186231
16 -0.000000098568994
17 0.0
18 0.000000084697799
19 0.0
20 0.083885312113790
21 0.11329313951610
22 0.007563499533345
23 -0.000000840908492
24 0.0
25 -0.019492651870358
26 0.083885312122254
27 0.11329313938910
28 0.007563499386627
29 -0.018377405549745
30 0.0
31 0.006498803067319
32 0.083891469535254
33 0.11329951836920
34 0.007564099253640
35 0.009189823408858
36 0.015916183452842
37 0.006497419454183
38 0.083891469535254
39 0.11329951836920
40 0.007564099253640
41 0.009189823408858
42 -0.015916183452842
43 0.006497419454183
 Sym=      3.1
 Ene=      -0.5461
 Spin= Alpha
 Occup=    2.000000
1 -0.000000000023965
2 -0.000000000042220
3 0.000000000146160
4 -0.000000000242942
5 -0.10943889322908
6 0.0
7 0.15479171654060
8 -0.17210918706040
9 0.0
10 0.24343335113086
11 -0.11271117345143
12 0.0
13 0.15942006415539
14 -0.026840803749854
15 -0.000000301725101
16 0.026841105474955
17 0.0
18 0.010961469250716
19 0.0
20 0.14154271942989
21 0.22222622595615
22 0.095870919144515
23 -0.006490236924366
24 0.0
25 -0.015091178221213
26 -0.14154059836608
27 -0.22222289395721
28 -0.095869481654564
29 0.016391484099891
30 0.0
31 0.001087095785255
32 -0.000001060538410
33 -0.000001665765752
34 -0.000000718590182
35 -0.006489617995814
36 -0.000000148505416
37 0.009178813672917
38 -0.000001060538410
39 -0.000001665765752
40 -0.000000718590182
41 -0.006489617995814
42 0.000000148505416
43 0.009178813672917
 Sym=      4.1
 Ene=      -0.5461
 Spin= Alpha
 Occup=    2.000000
1 -0.000002156067001
2 -0.000003726113234
3 0.000010058273330
4 0.000015331282616
5 0.15479313535973
6 0.0
7 0.10943989640068
8 0.24343473631733
9 0.0
10 0.17211016639909
11 0.15942027526128
12 0.0
13 0.11271132283591
14 0.009488065498924
15 -0.028470131074577
16 0.018982065575653
17 0.0
18 -0.015499194212340
19 0.0
20 0.10008432897173
21 0.15713617530598
22 0.067791773736986
23 0.009178014607748
24 0.0
25 -0.010671498138079
26 0.10008732859691
27 0.15714088718860
28 0.067793806436215
29 -0.007000835298894
30 0.0
31 0.012211037306737
32 -0.10008496096061
33 -0.15713429606559
34 -0.067789638587453
35 0.001088747457868
36 -0.014011813075703
37 0.000769623974039
38 -0.10008496096061
39 -0.15713429606559
40 -0.067789638587453
41 0.001088747457868
42 0.014011813075703
43 0.000769623974039
 Sym=      1.2
 Ene=      -0.5461
 Spin= Alpha
 Occup=    2.000000
1 0.0
2 0.0
3 0.0
4 0.0
5 0.0
6 0.18957496080280
7 0.0
8 0.0
9 0.29813318945627
10 0.0
11 0.0
12 0.19524035346816
13 0.0
14 0.0
15 0.0
16 0.0
17 -0.026845074965931
18 0.0
19 -0.018980094201705
20 0.0
21 0.0
22 0.0
23 0.0
24 0.011241269780780
25 0.0
26 0.0
27 0.0
28 0.0
29 0.0
30 0.011241269827432
31 0.0
32 -0.14154257825164
33 -0.22222434776065
34 -0.095872383543493
35 -0.011441455676483
36 -0.008574005871640
37 -0.008089375973629
38 0.14154257825164
39 0.22222434776065
40 0.095872383543493
41 0.011441455676483
42 -0.008574005871640
43 0.008089375973629
 Sym=      5.1
 Ene=       0.1623
 Spin= Alpha
 Occup=    0.000000
1 0.048565005954635
2 0.077897762179776
3 -0.063510323318576
4 -2.17082481481330
5 -0.000001669724578
6 0.0
7 -0.000001180523880
8 -0.000000623478677
9 0.0
10 -0.000000440347595
11 0.000007028570315
12 0.0
13 0.000004971118511
14 0.000000261730836
15 -0.000000793426887
16 0.000000531696051
17 0.0
18 -0.000000439937850
19 0.0
20 0.008328137699827
21 -0.006162231327887
22 0.78617919486339
23 -0.000000828785588
24 0.0
25 -0.002213251482947
26 0.008328137762219
27 -0.006162230147345
28 0.78617919746837
29 -0.002086868163653
30 0.0
31 0.000737201486366
32 0.008325118298422
33 -0.006158219125165
34 0.78617528195749
35 0.001043192128286
36 0.001808016007387
37 0.000737561126044
38 0.008325118298422
39 -0.006158219125165
40 0.78617528195749
41 0.001043192128286
42 -0.001808016007387
43 0.000737561126044
 Sym=      6.1
 Ene=       0.2375
 Spin= Alpha
 Occup=    0.000000
1 -0.000000000000003
2 -0.000000000028283
3 0.000000000417187
4 -0.000000002811752
5 0.079221020721186
6 0.0
7 -0.11203853681123
8 0.034760586311035
9 0.0
10 -0.049160251013479
11 0.65561268572331
12 0.0
13 -0.92720196127276
14 -0.027494877478150
15 0.000001242793119
16 0.027493634685031
17 0.0
18 0.011229219299942
19 0.0
20 0.014941064961202
21 -0.17482342185406
22 1.93760163637310
23 0.002207649339766
24 0.0
25 0.033664283624973
26 -0.014941965742708
27 0.17483395806204
28 -1.93771842930184
29 -0.032475681106240
30 0.0
31 0.009144577059473
32 0.000000450238383
33 -0.000005268791424
34 0.000058398462220
35 0.002206291952177
36 -0.000000905215980
37 -0.003121362815261
38 0.000000450238383
39 -0.000005268791424
40 0.000058398462220
41 0.002206291952177
42 0.000000905215980
43 -0.003121362815261
 Sym=      7.1
 Ene=       0.2375
 Spin= Alpha
 Occup=    0.000000
1 -0.000000812423890
2 -0.000001788687590
3 0.000012653277111
4 -0.000053192226656
5 0.11203826977032
6 0.0
7 0.079220831976518
8 0.049155830053068
9 0.0
10 0.034757460497587
11 0.92719639167106
12 0.0
13 0.65560874631064
14 -0.009718363560697
15 0.029164551740566
16 -0.019446188179869
17 0.0
18 0.015875542498247
19 0.0
20 -0.010568275441477
21 0.12363601721188
22 -1.37022924819931
23 0.003119855118041
24 0.0
25 -0.023807685719536
26 -0.010567001689421
27 0.12362111415891
28 -1.37006407879264
29 -0.021402170429336
30 0.0
31 0.010878925606965
32 0.010562225887759
33 -0.12362896929272
34 1.37017053408185
35 -0.009142494588151
36 -0.021240058630140
37 -0.006463757332507
38 0.010562225887759
39 -0.12362896929272
40 1.37017053408185
41 -0.009142494588151
42 0.021240058630140
43 -0.006463757332507
 Sym=      2.2
 Ene=       0.2375
 Spin= Alpha
 Occup=    0.000000
1 0.0
2 0.0
3 0.0
4 0.0
5 0.0
6 0.13721671865617
7 0.0
8 0.0
9 0.060197465087803
10 0.0
11 0.0
12 1.13556167462109
13 0.0
14 0.0
15 0.0
16 0.0
17 0.027500044500058
18 0.0
19 0.019443172822073
20 0.0
21 0.0
22 0.0
23 0.0
24 0.003822713484804
25 0.0
26 0.0
27 0.0
28 0.0
29 0.0
30 0.003822713523052
31 0.0
32 0.014940671239041
33 -0.17484614890479
34 1.93773395033241
35 -0.017344763625907
36 -0.026215998932204
37 -0.012263152331258
38 -0.014940671239041
39 0.17484614890479
40 -1.93773395033241
41 0.017344763625907
42 -0.026215998932204
43 0.012263152331258
 Sym=      3.2
 Ene=       0.4277
 Spin= Alpha
 Occup=    0.000000
1 0.0
2 0.0
3 0.0
4 0.0
5 0.0
6 0.003965449542291
7 0.0
8 0.0
9 0.052212118368221
10 0.0
11 0.0
12 1.58146509769008
13 0.0
14 0.0
15 0.0
16 0.0
17 -0.034741584990806
18 0.0
19 -0.024563110885361
20 0.0
21 0.0
22 0.0
23 0.0
24 0.005010714000258
25 0.0
26 0.0
27 0.0
28 0.0
29 0.0
30 0.005010714022286
31 0.0
32 0.053662514210098
33 1.14042541468147
34 -0.025342083483588
35 0.027933146264366
36 0.053381848632459
37 0.019749385821765
38 -0.053662514210098
39 -1.14042541468147
40 0.025342083483588
41 -0.027933146264366
42 0.053381848632459
43 -0.019749385821765
 Sym=      8.1
 Ene=       0.4277
 Spin= Alpha
 Occup=    0.000000
1 -0.000001889597342
2 -0.000002501920869
3 0.000003440430690
4 -0.000106743857105
5 0.003238882069909
6 0.0
7 0.002289803628113
8 0.042630521383271
9 0.0
10 0.030138639902606
11 1.29135680809950
12 0.0
13 0.91295475990624
14 0.012277978672435
15 -0.036841478040420
16 0.024563499367984
17 0.0
18 -0.020059326523375
19 0.0
20 -0.037945947780408
21 -0.80637048664520
22 0.017954765943995
23 0.004096196621663
24 0.0
25 0.044778897276299
26 -0.037949528489509
27 -0.80644658657472
28 0.017956460482943
29 0.043586036827749
30 0.0
31 -0.011070809034073
32 0.037939212665878
33 0.80640576636136
34 -0.017888048126093
35 0.023840334500922
36 0.034208855769624
37 0.016855467813429
38 0.037939212665878
39 0.80640576636136
40 -0.017888048126093
41 0.023840334500922
42 -0.034208855769624
43 0.016855467813429
 Sym=      9.1
 Ene=       0.4277
 Spin= Alpha
 Occup=    0.000000
1 -0.000000000087294
2 -0.000000000121253
3 0.000000000375327
4 -0.000000004130293
5 -0.002290447838196
6 0.0
7 0.003239793471629
8 -0.030136259737712
9 0.0
10 0.042627154779216
11 -0.91296404247347
12 0.0
13 1.29136993619330
14 -0.034731827736055
15 -0.000001228933677
16 0.034733056669732
17 0.0
18 0.014183728469255
19 0.0
20 -0.053659172061424
21 -1.14046481233005
22 0.025350546061992
23 -0.002894162930830
24 0.0
25 0.063335046038135
26 0.053656639604770
27 1.14041100328879
28 -0.025349347357471
29 -0.058742571544107
30 0.0
31 0.023846124056103
32 0.000001265903454
33 0.000026905172824
34 -0.000000597457677
35 -0.002891898690144
36 0.000001141287470
37 0.004091932336704
38 0.000001265903454
39 0.000026905172824
40 -0.000000597457677
41 -0.002891898690144
42 -0.000001141287470
43 0.004091932336704
 Sym=     10.1
 Ene=       0.7591
 Spin= Alpha
 Occup=    0.000000
1 0.065438097933312
2 0.12630404658838
3 -0.37614964441740
4 -2.29461012828046
5 -0.000040435985348
6 0.0
7 -0.000028589688177
8 -0.000136502516065
9 0.0
10 -0.000096511630605
11 0.000419137351824
12 0.0
13 0.000296342445109
14 0.000005986276073
15 -0.000017900582193
16 0.000011914306120
17 0.0
18 -0.000009675339296
19 0.0
20 0.047395569000830
21 1.22102050667684
22 -0.13550781833106
23 -0.000007411377138
24 0.0
25 0.019358122862332
26 0.047395568853359
27 1.22102050605670
28 -0.13550781489744
29 0.018247822946235
30 0.0
31 -0.006461725822449
32 0.047377799177329
33 1.22101822798912
34 -0.13500973328261
35 -0.009118314623920
36 -0.015777840197725
37 -0.006446861153557
38 0.047377799177329
39 1.22101822798912
40 -0.13500973328261
41 -0.009118314623920
42 0.015777840197725
43 -0.006446861153557
 Sym=     11.1
 Ene=       0.8146
 Spin= Alpha
 Occup=    0.000000
1 -0.000000000015380
2 -0.000000000022303
3 0.000000000106989
4 -0.000000000127027
5 0.14668726561102
6 0.0
7 -0.20746832270747
8 0.60194255368589
9 0.0
10 -0.85136232724663
11 -0.97125071810180
12 0.0
13 1.37369632016616
14 -0.053986308727360
15 0.000000427822534
16 0.053985880904825
17 0.0
18 0.022047797314182
19 0.0
20 0.050196359096054
21 0.48815456093739
22 -1.45857924324370
23 0.030314063754329
24 0.0
25 0.051114904134432
26 -0.050196889371248
27 -0.48815971484581
28 1.45859464443248
29 -0.058297861119515
30 0.0
31 -0.011534800589532
32 0.000000265060068
33 0.000002577291559
34 -0.000007700733410
35 0.030311246697986
36 -0.000000405211906
37 -0.042871453536298
38 0.000000265060068
39 0.000002577291559
40 -0.000007700733410
41 0.030311246697986
42 0.000000405211906
43 -0.042871453536298
 Sym=     12.1
 Ene=       0.8146
 Spin= Alpha
 Occup=    0.000000
1 -0.000012486274068
2 -0.000024557127968
3 0.000079207815499
4 0.000435968816281
5 -0.20746713877033
6 0.0
7 -0.14668642857424
8 -0.85137131231045
9 0.0
10 -0.60194890654941
11 1.37368390529410
12 0.0
13 0.97124194099317
14 0.019082126633650
15 -0.057259417091195
16 0.038177290457545
17 0.0
18 -0.031169753098535
19 0.0
20 0.035486710043789
21 0.34495011592811
22 -1.03137104834969
23 -0.042866006816627
24 0.0
25 0.036138256649019
26 0.035485960385496
27 0.34494282668906
28 -1.03134926722599
29 0.019776097596302
30 0.0
31 -0.052462917760149
32 -0.035501986170523
33 -0.34544533483400
34 1.03142547400113
35 -0.011540522562580
36 0.054263735667331
37 -0.008159898741240
38 -0.035501986170523
39 -0.34544533483400
40 1.03142547400113
41 -0.011540522562580
42 -0.054263735667331
43 -0.008159898741240
 Sym=      4.2
 Ene=       0.8146
 Spin= Alpha
 Occup=    0.000000
1 0.0
2 0.0
3 0.0
4 0.0
5 0.0
6 -0.25408419543368
7 0.0
8 0.0
9 -1.04268813955792
10 0.0
11 0.0
12 1.68233975467901
13 0.0
14 0.0
15 0.0
16 0.0
17 -0.053985886257503
18 0.0
19 -0.038169280548200
20 0.0
21 0.0
22 0.0
23 0.0
24 -0.052502232308471
25 0.0
26 0.0
27 0.0
28 0.0
29 0.0
30 -0.052502232257154
31 0.0
32 -0.050196047004633
33 -0.48820426281607
34 1.45863264998206
35 0.044302511084547
36 0.024224339151752
37 0.031322908560194
38 0.050196047004633
39 0.48820426281607
40 -1.45863264998206
41 -0.044302511084547
42 0.024224339151752
43 -0.031322908560194
 Sym=     13.1
 Ene=       0.9354
 Spin= Alpha
 Occup=    0.000000
1 0.10376631788101
2 0.21895090116379
3 -1.91791740749237
4 5.71273849544102
5 0.000002752932993
6 0.0
7 0.000001946478258
8 -0.000033993190117
9 0.0
10 -0.000024035024157
11 -0.000092779751938
12 0.0
13 -0.000065597237155
14 -0.000001638460649
15 0.000004876268486
16 -0.000003237807837
17 0.0
18 0.000002609073305
19 0.0
20 0.014679255090497
21 -0.72546780688022
22 -0.74720494504042
23 0.000007626944442
24 0.0
25 0.15434639950446
26 0.014679255155513
27 -0.72546780832569
28 -0.74720494434278
29 0.14551599867775
30 0.0
31 -0.051457803163398
32 0.014678752173402
33 -0.72553846488263
34 -0.74726729167555
35 -0.072769793537390
36 -0.12603462480958
37 -0.051449941106327
38 0.014678752173402
39 -0.72553846488263
40 -0.74726729167555
41 -0.072769793537390
42 0.12603462480958
43 -0.051449941106327
 Sym=     14.1
 Ene=       1.2026
 Spin= Alpha
 Occup=    0.000000
1 0.000000021208339
2 0.000000055622580
3 -0.000000683297050
4 0.000002655936959
5 0.000000730498035
6 0.0
7 0.000000516517351
8 0.000034626828100
9 0.0
10 0.000024481999385
11 -0.000008113652868
12 0.0
13 -0.000005736404449
14 0.23044810818484
15 -0.23042795055731
16 -0.000020157627538
17 0.0
18 0.37621987465446
19 0.0
20 0.000003753860707
21 -0.000016920481715
22 0.000011446976032
23 0.30871590038937
24 0.0
25 -0.000002583481157
26 0.000003753998490
27 -0.000016921163661
28 0.000011447489598
29 0.10293525439003
30 0.0
31 0.29104955016107
32 -0.000003828713443
33 0.000015789341435
34 -0.000011918873559
35 -0.20583400445328
36 0.17826843146699
37 -0.14552944139778
38 -0.000003828713443
39 0.000015789341435
40 -0.000011918873559
41 -0.20583400445328
42 -0.17826843146699
43 -0.14552944139778
 Sym=      5.2
 Ene=       1.2026
 Spin= Alpha
 Occup=    0.000000
1 0.0
2 0.0
3 0.0
4 0.0
5 0.0
6 0.000000000015409
7 0.0
8 0.0
9 -0.000000000228948
10 0.0
11 0.0
12 0.000000000045500
13 0.0
14 0.0
15 0.0
16 0.0
17 -0.26602651037505
18 0.0
19 0.37626270992943
20 0.0
21 0.0
22 0.0
23 0.0
24 0.30874028204373
25 0.0
26 0.0
27 0.0
28 0.0
29 0.0
30 -0.30874028189366
31 0.0
32 0.000000000045151
33 -0.000000000384561
34 0.000000000161421
35 0.17822832793156
36 -0.000000000113918
37 -0.25208267215408
38 -0.000000000045151
39 0.000000000384561
40 -0.000000000161421
41 -0.17822832793156
42 -0.000000000113918
43 0.25208267215408
 Sym=     15.1
 Ene=       1.7213
 Spin= Alpha
 Occup=    0.000000
1 -0.000000000026330
2 -0.000000000074342
3 0.000000000227746
4 0.000000003688006
5 -0.033612117254101
6 0.0
7 0.047538853288777
8 -0.11925092244056
9 0.0
10 0.16866096118542
11 -0.57668747761791
12 0.0
13 0.81563030269130
14 -0.69950330672990
15 0.000010816371178
16 0.69949249035872
17 0.0
18 0.28567657176603
19 0.0
20 0.28055851763239
21 -1.27522946207288
22 0.15198265614248
23 0.16293854607678
24 0.0
25 -0.049705411674101
26 -0.28056430228751
27 1.27525575268354
28 -0.15198579146911
29 -0.007465886037987
30 0.0
31 -0.17018162321854
32 0.000002891913923
33 -0.000013146677073
34 0.000001566691487
35 0.16152242986467
36 -0.000001509258239
37 -0.22844894476208
38 0.000002891913923