
 Working directory              : /tmp/lme/molpro.0KhGvU6Wbu/
 Global scratch directory       : /tmp/lme/molpro.0KhGvU6Wbu/
 Wavefunction directory         : /home/lme/wfu/
 Main file repository           : /tmp/lme/molpro.0KhGvU6Wbu/

 id        : liedlgroup

 Nodes     nprocs
 sv1-c724     1
 GA implementation: MPI file
 GA implementation (serial work in mppx): MPI file

 Using customized tuning parameters: mindgm=1; mindgv=20; mindgc=4; mindgr=1; noblas=0; minvec=7
 default implementation of scratch files=df  


 Variables initialized (1042), CPU time= 0.00 sec
 
             orient,mass
             geometry=/home/lme/Theoretische_Chemie/Nomodeco/pubchempy_integration/water.xyz
 Including file /home/lme/Theoretische_Chemie/Nomodeco/pubchempy_integration/water.xyz
             mass, iso
             basis=6-311g(d,p)
             {hf
             start, atden}
             optg;
             {frequencies, symm=auto, print=0, analytical}
             put, molden, water.molden
 Commands initialized (847), CPU time= 0.00 sec, 718 directives.
 Default parameters read. Elapsed time= 0.06 sec

 Checking input...
 Passed
1


                                         ***  PROGRAM SYSTEM MOLPRO  ***
                                       Copyright, TTI GmbH Stuttgart, 2015
                                    Version 2024.1 linked Wed Jan 31 11:42:09 2024


 **********************************************************************************************************************************
 LABEL *                                                                                                                                                                 
  (6 PROC) 64 bit serial version                                                         DATE: 29-Sep-24          TIME: 20:49:05  
 **********************************************************************************************************************************

 SHA1:             675817fde4514a4a933b69e420913a90cee4ef91
 **********************************************************************************************************************************

 Memory per process:        32 MW
 Total memory per node:     32 MW

 GA preallocation disabled
 GA check disabled

 Variable memory set to 32.0 MW

 ZCENTRE=MASS


 Geometry recognized as XYZ



 Using masses of most abundant isotopes

 **********************************************************************************************************************************
 SETTING BASIS          =    6-311G(D,P)


 Recomputing integrals since basis changed


 Using spherical harmonics

 Library entry O      S 6-311G               selected for orbital group  1
 Library entry O      P 6-311G               selected for orbital group  1
 Library entry O      D 6-311G*              selected for orbital group  1
 Library entry H      S 6-311G               selected for orbital group  2
 Library entry H      P 6-311G**             selected for orbital group  2


 PROGRAM * SEWARD (Integral evaluation for generally contracted gaussian basis sets)     Author: Roland Lindh, 1990

 Geometry written to block  1 of record 700

 Orientation using atomic masses  
 Molecule type: Asymmetric top
 Symmetry elements: X
 Rotational constants:     278.8675630    430.1489919    792.9235063 GHz

 Point group  Cs  



 ATOMIC COORDINATES

 NR  ATOM    CHARGE       X              Y              Z

   1  O1      8.00    0.000000000   -0.126195790   -0.000000271
   2  H2      1.00    0.000000000    1.001407448    1.442750032
   3  H3      1.00    0.000000000    1.001410809   -1.442745732

 Bond lengths in Bohr (Angstrom)

 1-2  1.831124655  1-3  1.831122909
     ( 0.968989438)     ( 0.968988514)

 Bond angles

  2-1-3  103.97994237

 NUCLEAR CHARGE:                   10
 NUMBER OF PRIMITIVE AOS:          48
 NUMBER OF SYMMETRY AOS:           47
 NUMBER OF CONTRACTIONS:           30   (   23A'  +    7A"  )
 NUMBER OF INNER CORE ORBITALS:     0   (    0A'  +    0A"  )
 NUMBER OF OUTER CORE ORBITALS:     1   (    1A'  +    0A"  )
 NUMBER OF VALENCE ORBITALS:        6   (    5A'  +    1A"  )


 NUCLEAR REPULSION ENERGY    9.08436451

 Eigenvalues of metric

         1 0.187E-01 0.424E-01 0.903E-01 0.995E-01 0.114E+00 0.128E+00 0.149E+00 0.293E+00
         2 0.215E+00 0.461E+00 0.660E+00 0.909E+00 0.119E+01 0.130E+01 0.227E+01


 Contracted 2-electron integrals neglected if value below      1.0D-11
 AO integral compression algorithm  1   Integral accuracy      1.0D-11

     0.524 MB (compressed) written to integral file ( 91.7%)


 NUMBER OF SORTED TWO-ELECTRON INTEGRALS:      61816.     BUFFER LENGTH:  32768
 NUMBER OF SEGMENTS:   1  SEGMENT LENGTH:      61816      RECORD LENGTH: 524288

 Memory used in sort:       0.62 MW

 SORT1 READ       79218. AND WROTE       55476. INTEGRALS IN      1 RECORDS. CPU TIME:     0.00 SEC, REAL TIME:     0.00 SEC
 SORT2 READ       55476. AND WROTE       61816. INTEGRALS IN      2 RECORDS. CPU TIME:     0.00 SEC, REAL TIME:     0.00 SEC

 FILE SIZES:   FILE 1:    30.6 MBYTE,  FILE 4:     4.3 MBYTE,   TOTAL:     34.8 MBYTE

 OPERATOR DM      FOR CENTER  0  COORDINATES:    0.000000    0.000000    0.000000


 **********************************************************************************************************************************
 DATASETS  * FILE   NREC   LENGTH (MB)   RECORD NAMES
              1      19       28.95       500      610      700      900      950      970     1000      129      960     1100   
                                          VAR    BASINP    GEOM    SYMINP    ZMAT    AOBASIS   BASIS     P2S    ABASIS      S 
                                         1400     1410     1200     1210     1080     1600     1650     1300     1700   
                                           T        V       H0       H01     AOSYM     SMH    MOLCAS    ERIS     OPER   

 PROGRAMS   *        TOTAL       INT
 CPU TIMES  *         0.19      0.10
 REAL TIME  *         0.28 SEC
 DISK USED  *        33.56 MB
 **********************************************************************************************************************************


 Program * Restricted Hartree-Fock

 Orbital guess generated from atomic densities.

 Initial occupancy:   4   1

 NELEC=   10   SYM=1   MS2= 0   THRE=1.0D-08   THRD=1.0D-06   THRG=1.0D-06  HFMA2=F  DIIS_START=2   DIIS_MAX=10   DIIS_INCORE=F

 Level shifts:    0.00 (CLOSED)    0.00 (OPEN)    0.30 (GAP_MIN)

 ITER           ETOT              DE          GRAD        DDIFF     DIIS  NEXP   TIME(IT)  TIME(TOT)  DIAG
   1      -76.00564440     -76.00564440     0.00D+00     0.11D+00     0     0       0.00      0.01    start
   2      -76.03554698      -0.02990258     0.24D-01     0.18D-01     1     0       0.00      0.01    diag
   3      -76.04514060      -0.00959362     0.14D-01     0.61D-02     2     0       0.00      0.01    diag
   4      -76.04535800      -0.00021740     0.14D-02     0.11D-02     3     0       0.00      0.01    diag
   5      -76.04537979      -0.00002179     0.40D-03     0.47D-03     4     0       0.00      0.01    diag
   6      -76.04538053      -0.00000074     0.65D-04     0.81D-04     5     0       0.00      0.01    diag
   7      -76.04538055      -0.00000002     0.11D-04     0.14D-04     6     0       0.00      0.01    diag
   8      -76.04538055      -0.00000000     0.13D-05     0.17D-05     7     0       0.01      0.02    fixocc
   9      -76.04538055      -0.00000000     0.12D-06     0.21D-06     8     0       0.00      0.02    diag
  10      -76.04538055      -0.00000000     0.25D-07     0.19D-07     0     0       0.00      0.02    diag/orth

 Final occupancy:   4   1

 !RHF STATE 1.1 Energy                -76.045380548745
  RHF One-electron energy            -122.955169304578
  RHF Two-electron energy              37.825424244149
  RHF Kinetic energy                   76.014631123618
  RHF Nuclear energy                    9.084364511684
  RHF Virial quotient                  -1.000404519823

 !RHF STATE 1.1 Dipole moment           0.00000000     0.85927192     0.00000156
 Dipole moment /Debye                   0.00000000     2.18405138     0.00000396

 Orbital energies:

           1.1          2.1          3.1          4.1          5.1          6.1
    -20.547330    -1.335813    -0.699153    -0.570751     0.148615     0.215760

           1.2          2.2          3.2
     -0.499114     1.003930     1.513977


 HOMO      1.2    -0.499114 =     -13.5816eV
 LUMO      5.1     0.148615 =       4.0440eV
 LUMO-HOMO         0.647729 =      17.6256eV

 Orbitals saved in record  2100.2


 **********************************************************************************************************************************
 DATASETS  * FILE   NREC   LENGTH (MB)   RECORD NAMES
              1      19       28.95       500      610      700      900      950      970     1000      129      960     1100   
                                          VAR    BASINP    GEOM    SYMINP    ZMAT    AOBASIS   BASIS     P2S    ABASIS      S 
                                         1400     1410     1200     1210     1080     1600     1650     1300     1700   
                                           T        V       H0       H01     AOSYM     SMH    MOLCAS    ERIS     OPER   

              2       4        0.42       700     1000      520     2100   
                                         GEOM     BASIS   MCVARS     RHF  

 PROGRAMS   *        TOTAL    HF-SCF       INT
 CPU TIMES  *         0.21      0.02      0.10
 REAL TIME  *         0.30 SEC
 DISK USED  *        33.56 MB
 **********************************************************************************************************************************


 PROGRAM * OPT (Geometry optimization)     Authors: F. Eckert and H.-J. Werner


 BFGS update of hessian

 *** Long output written to logfile /home/lme/Theoretische_Chemie/Nomodeco/pubchempy_integration/water.molpro/run/water_4.molpro/water_4.log ***


 Geometry optimization using default procedure for command HF-SCF

 Geometry written to block  1 of record 700

 PQS Optimization using delocalized internal coordinates

 Point group c2v. Number of degrees of freedom:    2

 ITER.   ENERGY(OLD)    ENERGY(NEW)      DE          GRADMAX     GRADNORM    GRADRMS     STEPMAX     STEPLEN     STEPRMS   CPU-time
   1   -76.04538055   -76.04698395    -0.00160340  0.03415314  0.04174148  0.02951569  0.06721440  0.07792214  0.05509927      0.07
   2   -76.04698395   -76.04701178    -0.00002783  0.00378932  0.00379206  0.00268139  0.01591370  0.01848263  0.01306919      0.16
   3   -76.04701178   -76.04701203    -0.00000025  0.00035019  0.00035103  0.00024821  0.00135665  0.00159307  0.00112647      0.25
   4   -76.04701203   -76.04701203    -0.00000000  0.00000330  0.00000330  0.00000234  0.00001198  0.00001350  0.00000955      0.33

 END OF GEOMETRY OPTIMIZATION.

 Geometry written to block  1 of record 700

 Recomputing wavefunction for reoriented structure

 Current geometry (xyz format, in Angstrom)

    3
 HF-SCF000/6-311G(D,P)  ENERGY=-76.04701203
 O          0.0000000000       -0.0637711810        0.0000000000
 H          0.0000000000        0.5060473297        0.7488258480
 H          0.0000000000        0.5060473297       -0.7488258480

 **********************************************************************************************************************************


 **********************************************************************************************************************************
 DATASETS  * FILE   NREC   LENGTH (MB)   RECORD NAMES
              1      19       28.95       500      610      700      900      950      970     1000      129      960     1100   
                                          VAR    BASINP    GEOM    SYMINP    ZMAT    AOBASIS   BASIS     P2S    ABASIS      S 
                                         1400     1410     1200     1210     1080     1600     1650     1300     1700   
                                           T        V       H0       H01     AOSYM     SMH    MOLCAS    ERIS     OPER   

              2       4        0.42       700     1000      520     2100   
                                         GEOM     BASIS   MCVARS     RHF  

 PROGRAMS   *        TOTAL      OPTG    HF-SCF       INT
 CPU TIMES  *         0.58      0.37      0.02      0.10
 REAL TIME  *         0.82 SEC
 DISK USED  *        33.91 MB
 **********************************************************************************************************************************


 PROGRAM * HESSIAN

 PROGRAM * MCKINLEY (Hessian of the energy)     Author: A. Bernhardsson, R. Lindh

 Orbitals from record         2100.2

 Number of closed-shell orbitals:  5 (  4  1 )
 Number of occupied orbitals:      5 (  4  1 )

 Number of electrons= 10     Singlet     Space symmetry=1      Wavefunction type: CLOSED          


 McKinley needed      0.14 seconds of CPU time

 Entering CPHF calculation

 CPHF needed  66 iterations for  9 perturbations.  Total CPU time:    0.03 sec


 HF-SCF hessian saved to record  5300.2

 PROGRAM * FREQUENCIES (Calculation of harmonic vibrational spectra for HF-SCF)


 Permanent Dipole Moment [debye]
     1-   3    0.000000    0.000000    0.000000

 Dipole Moment Norm    0.0000000 [debye]

 Dipole Moment Derivatives [debye/ang]
              1             2             3             4             5             6             7             8
    1    0.00000000    0.00000000    0.00000000    0.00000000    0.00000000    0.00000000    0.00000000    0.00000000
    2    0.00000000    0.00000000    0.00000000    0.00000000    0.00000000    0.00000000    0.00000000    0.00000000
    3    0.00000000    0.00000000    0.00000000    0.00000000    0.00000000    0.00000000    0.00000000    0.00000000
              9
    1    0.00000000
    2    0.00000000
    3    0.00000000

 Projecting out rotations and translations

 Force Constants (Second Derivatives of the Energy) in [a.u.]
                             O1X1        O1Y1        O1Z1        H2X2        H2Y2    
           O1X1         -0.0000000
           O1Y1          0.0000000   0.5365843
           O1Z1          0.0000000   0.0000000   0.8032676
           H2X2          0.0000000   0.0000000   0.0000000  -0.0000000
           H2Y2          0.0000000  -0.2682922  -0.3056230   0.0000000   0.2504279
           H2Z2          0.0000000  -0.2406850  -0.4016338   0.0000000   0.2731540
           H3X3          0.0000000   0.0000000   0.0000000   0.0000000   0.0000000
           H3Y3          0.0000000  -0.2682922   0.3056230   0.0000000   0.0178643
           H3Z3          0.0000000   0.2406850  -0.4016338   0.0000000   0.0324690
                             H2Z2        H3X3        H3Y3        H3Z3    
           H2Z2          0.4354122
           H3X3          0.0000000  -0.0000000
           H3Y3         -0.0324690   0.0000000   0.2504279
           H3Z3         -0.0337783   0.0000000  -0.2731540   0.4354122


 Atomic Masses
     1-   3   15.994910    1.007825    1.007825

 Mass weighted Second Derivative Matrix
                             O1X1        O1Y1        O1Z1        H2X2        H2Y2    
           O1X1         -0.0000000
           O1Y1          0.0000000   0.0335472
           O1Z1          0.0000000   0.0000000   0.0502202
           H2X2          0.0000000   0.0000000   0.0000000  -0.0000000
           H2Y2          0.0000000  -0.0668228  -0.0761207   0.0000000   0.2484835
           H2Z2          0.0000000  -0.0599467  -0.1000338   0.0000000   0.2710331
           H3X3          0.0000000   0.0000000   0.0000000   0.0000000   0.0000000
           H3Y3          0.0000000  -0.0668228   0.0761207   0.0000000   0.0177256
           H3Z3          0.0000000   0.0599467  -0.1000338   0.0000000   0.0322169
                             H2Z2        H3X3        H3Y3        H3Z3    
           H2Z2          0.4320315
           H3X3          0.0000000  -0.0000000
           H3Y3         -0.0322169   0.0000000   0.2484835
           H3Z3         -0.0335161   0.0000000  -0.2710331   0.4320315


 Mass Weighted 2nd Derivative Matrix Eigenvalues
     1-   9    0.000000    0.000000    0.000000    0.000000    0.000000    0.000000    0.116021    0.649283    0.679494

 Mass Weighted 2nd Derivative Matrix Eigenvectors
              1             2             3             4             5             6             7             8
    1    0.00000000    0.00000000    1.00000000    0.00000000    0.00000000    0.00000000    0.00000000    0.00000000
    2    0.23964317    0.52259007    0.00000000    0.00675838    0.63336430   -0.39542366   -0.27084061   -0.19636768
    3    0.65771438    0.19938397    0.00000000    0.00294033    0.00712218    0.67356527    0.00000000    0.00000000
    4    0.01657858   -0.50827930    0.00000000    0.70062879    0.48435340    0.12608880    0.00000000    0.00000000
    5    0.52453209   -0.06351114    0.00000000   -0.00080310    0.00170763   -0.32708548    0.53948841    0.39114550
    6   -0.18827102    0.19819758    0.00000000    0.00264011    0.12146763    0.34244113   -0.41506016    0.57247276
    7   -0.01689981    0.48990763    0.00000000    0.71346533   -0.48442500   -0.12650911    0.00000000    0.00000000
    8   -0.40422348    0.32586823    0.00000000    0.00419603    0.31626170    0.12857003    0.53948841    0.39114550
    9   -0.18827102    0.19819758    0.00000000    0.00264011    0.12146763    0.34244113    0.41506016   -0.57247276
              9
    1    0.00000000
    2    0.00000000
    3   -0.27186078
    4    0.00000000
    5    0.41206965
    6    0.54152051
    7    0.00000000
    8   -0.41206965
    9    0.54152051

   Low Vibration      Wavenumber
        Nr             [1/cm] 
        1                0.00
        2                0.00
        3                0.00
        4                0.00
        5                0.00
        6                0.00

     Vibration        Wavenumber
        Nr             [1/cm] 
        1             1750.94
        2             4142.11
        3             4237.38

 FREQUENCIES * CALCULATION OF NORMAL MODES FOR HF-SCF


 Atomic Coordinates

  Nr  Atom  Charge       X              Y              Z

   1   O1    8.00    0.000000000   -0.120510067    0.000000000
   2   H2    1.00    0.000000000    0.956290859    1.415075768
   3   H3    1.00    0.000000000    0.956290859   -1.415075768

 Gradient norm at reference geometry: 0.29705D-05

 Normal Modes

                              1 A1        2 A1        3 B2 
 Wavenumbers [cm-1]         1750.94     4142.11     4237.38
 Intensities [km/mol]          0.00        0.00        0.00
 Intensities [relative]        0.00        0.00        0.00
           O1X1             0.00000    -0.00000     0.00000
           O1Y1            -0.06772    -0.04910    -0.00000
           O1Z1            -0.00000     0.00000    -0.06798
           H2X2            -0.00000    -0.00000    -0.00000
           H2Y2             0.53739     0.38962     0.41047
           H2Z2            -0.41345     0.57025     0.53941
           H3X3             0.00000     0.00000     0.00000
           H3Y3             0.53739     0.38962    -0.41047
           H3Z3             0.41345    -0.57025     0.53941


 Normal Modes of low/zero frequencies

                                  1           2           3           4           5
 Wavenumbers [cm-1]            0.00        0.00        0.00        0.00        0.00
 Intensities [km/mol]          0.00        0.00        0.00        0.00        0.00
 Intensities [relative]        0.00        0.00        0.00        0.00        0.00
           O1X1             0.00000     0.00000     0.25004     0.00000    -0.00000
           O1Y1             0.05992     0.13067    -0.00000     0.00169     0.15837
           O1Z1             0.16445     0.04985    -0.00000     0.00074     0.00178
           H2X2             0.01651    -0.50630    -0.00000     0.69790     0.48247
           H2Y2             0.52249    -0.06326     0.00000    -0.00080     0.00170
           H2Z2            -0.18754     0.19743    -0.00000     0.00263     0.12100
           H3X3            -0.01683     0.48800    -0.00000     0.71069    -0.48254
           H3Y3            -0.40265     0.32460    -0.00000     0.00418     0.31503
           H3Z3            -0.18754     0.19743    -0.00000     0.00263     0.12100

                                  6
 Wavenumbers [cm-1]            0.00
 Intensities [km/mol]          0.00
 Intensities [relative]        0.00
           O1X1            -0.00000
           O1Y1            -0.09887
           O1Z1             0.16842
           H2X2             0.12560
           H2Y2            -0.32581
           H2Z2             0.34111
           H3X3            -0.12602
           H3Y3             0.12807
           H3Z3             0.34111


 Frequencies dumped to record   5400.2
 Frequency information read from record  5400.2

 Zero point energy:  0.02307881 [H]     5065.21 [1/CM]       60.59 [KJ/MOL]


 **********************************************************************************************************************************
 DATASETS  * FILE   NREC   LENGTH (MB)   RECORD NAMES
              1      19       28.95       500      610      700      900      950      970     1000      129      960     1100   
                                          VAR    BASINP    GEOM    SYMINP    ZMAT    AOBASIS   BASIS     P2S    ABASIS      S 
                                         1400     1410     1200     1210     1080     1600     1650     1300     1700   
                                           T        V       H0       H01     AOSYM     SMH    MOLCAS    ERIS     OPER   

              2       7        0.43       700     1000      520     2100     5300     5450     5400   
                                         GEOM     BASIS   MCVARS     RHF     HESS     NMOD     FREQ   

              4       5        0.15      4100     4000     4200     4300     4400   

 PROGRAMS   *        TOTAL      FREQ      OPTG    HF-SCF       INT
 CPU TIMES  *         0.76      0.17      0.37      0.02      0.10
 REAL TIME  *         1.02 SEC
 DISK USED  *        33.91 MB
 **********************************************************************************************************************************

 Dump information in style MOLDEN to water.molden                                                                    

 Molecular orbitals read from record     2100.2  Type=RHF/CANONICAL  
 Occupation numbers read from record     2100.2  Type=RHF/RHF  
 Orbital energies read from record       2100.2  Type=RHF/CANONICAL  
 Redundancy group numbers read from rec  2100.2  Type=RHF/RHF  

 DUMP ORBITAL  1.1 AS ORBITAL    1  occ=    2.0000  eig=  -20.5413  GROUP=   2
 DUMP ORBITAL  2.1 AS ORBITAL    2  occ=    2.0000  eig=   -1.3491  GROUP=   2
 DUMP ORBITAL  3.1 AS ORBITAL    3  occ=    2.0000  eig=   -0.7172  GROUP=   2
 DUMP ORBITAL  4.1 AS ORBITAL    4  occ=    2.0000  eig=   -0.5729  GROUP=   2
 DUMP ORBITAL  1.2 AS ORBITAL    5  occ=    2.0000  eig=   -0.5007  GROUP=   2

 Total charge:      10.000000
 Frequency information read from record  5400.2

 **********************************************************************************************************************************

 HF/6-311G(D,P)//HF/6-311G(D,P) energy=    -76.047012027786

    OPTG(HF-SCF)          HF-SCF
    -76.04701203    -76.04538055
 **********************************************************************************************************************************
 Molpro calculation terminated
