[Molden Format]
[Molpro variables]
_NUMVAR=  1058.000000000000    
_AVOGAD= 0.6022140760000000E+24
_BOLTZ= 0.1380649000000000E-22
_CLIGHTSI=  299792458.0000000    
_JOULE= 0.4359744722207100E-17
_JPCAL=  4.184000000000000    
_PLANCK= 0.6626070150000000E-33
_BOHR= 0.5291772109030000E-10
_ECHARG= 0.1602176634000000E-18
_ENULL= 0.8854187812800001E-11
_MU= 0.1660539066600000E-26
_EMASS= 0.9109383701500001E-30
_AMU2AU=  1822.888486217313    
_CLIGHT=  29979245800.00000    
_EV= 0.3674932217565494E-01
_KJOULE= 0.3808798847133432E-03
_KJOULE/MOL= 0.3808798847133432E-03
_CM= 0.4556335252912009E-05
_CM-1= 0.4556335252912009E-05
_DEB2SI= 0.3335640951981520E-29
_KCAL= 0.1593601437640628E-02
_KCAL/MOL= 0.1593601437640628E-02
_KELVIN= 0.3166811563455608E-05
_HERTZ= 0.1519829846057038E-15
_HZ= 0.1519829846057038E-15
_TOA= 0.5291772109030000    
_TOANG= 0.5291772109030000    
_TORAD= 0.1745329251994330E-01
_TOCM=  219474.6313631965    
_TODEBYE=  2.541746473194078    
_TOE= 0.4803204712570263E-09
_TOEV=  27.21138624598803    
_TOHERTZ=  6579683920501656.    
_TOHZ=  6579683920501656.    
_TOK=  315775.0248040668    
_TOKCAL=  627.5094740630558    
_TOKELVIN=  315775.0248040668    
_TOKJ=  2625.499639479825    
_TOKJOULE=  2625.499639479825    
_TOKG= 0.1660539066600000E-26
_ANG=  1.889726124625770    
_ANGSTROM=  1.889726124625770    
_RPAREF=  0.000000000000000    
_RPADISS=  0.000000000000000    
_IGNORE_UNDEF=  2.000000000000000    
_STRICTCHECK=  0.000000000000000    
!SEWARD=  0.000000000000000    
!MULTI=  0.000000000000000    
!DFMULTI=  0.000000000000000    
!NUMHESS=  0.000000000000000    
_SEW_ONEEL=  0.000000000000000    
_CPPDONE=FALSE
_DKROLL_DONE=  0.000000000000000    
_FNUC_DONE=  0.000000000000000    
_FOCKDONE=TRUE
_GRADONE=FALSE
_HESSDONE=TRUE
_INTDONE=TRUE
_SCFDONE=TRUE
_MODUL_BLOCK=FALSE
_MODUL_SLATER=TRUE
_MODUL_MRCC=FALSE
_MODUL_NBO6=FALSE
_MODUL_NECI=FALSE
_MODUL_AIMS=TRUE
_MODUL_HDF5=FALSE
_MODUL_GECCO=FALSE
_ISWINDOWS=FALSE
_MRCC_EXEC=
_FITC_AO_SAVED=FALSE
_FITC_MO_SAVED=FALSE
_LSTYP=SEWARD
_INTYP=INTS
_GEOMTYP=XYZ
_GRADTYP=ALASKA
_DIRECT=FALSE
_DKHO= -1.000000000000000    
_FNUC=  0.000000000000000    
_SYNCM=  0.000000000000000    
_BASIS=6-311G(D,P)
_ZCENTRE=MASS
_ZORIENT=  1.000000000000000    
_NELEC=  10.00000000000000    
!SPIN=  0.000000000000000    
_OPTCONV= 0.1350489294473636E-04
_QSDSTEP=  0.000000000000000    
_QSDIRC=  0.000000000000000    
_PROGRAM=FREQ
_CPUSTEP= 0.1799999999999999    
_SYSSTEP= 0.3000000000000003E-01
_WALLSTEP= 0.2000000000000000    
!DFSCF=  0.000000000000000    
!SCSGRD=  0.000000000000000    
_NCEN=  3.000000000000000    
_CPUTOT= 0.7600000000000000    
_DFTEXFAC=  1.000000000000000    
_DMX=  0.000000000000000    
_DMY= 0.8410290099364666    
_DMZ= 0.1345711736489008E-14
_DMX_SCF=  0.000000000000000    
_DMY_SCF= 0.8410290099364666    
_DMZ_SCF= 0.1345711736489008E-14
_FREQUENCIES= 0.4783454199082240E-04
_HOMO=  1.200000000000000    
_EHOMO=-0.5006662240441666    
_LUMO=  5.100000000000000    
_ELUMO= 0.1525987452487269    
_ENERGY= -76.04701202778577    
_ENERGY_METHOD=HF
_ENERGY_BASIS=6-311G(D,P)
_GEOMETRY_METHOD=HF
_GEOMETRY_BASIS=6-311G(D,P)
_ENUC=  9.351280055687191    
_GRADENERG= -76.04701202777386    
_GRADEXFAC=  9999.000000000000    
_GRADMETHOD=  1.000000000000000    
_NMRMETHOD=  0.000000000000000    
_NMRMAGNET=  0.000000000000000    
_VIRIAL= 0.5664417891416047E-05
!GRID_FREEZE= -1.000000000000000    
!NEESE_INDEX=  0.000000000000000    
_ITERATIONS=  2.000000000000000    
_LASTNELEC=  10.00000000000000    
_LASTSPIN=  0.000000000000000    
_LASTSYM=  1.000000000000000    
_MPP_PROG=  0.000000000000000    
_MSNSTATES=  0.000000000000000    
_RS2PHASE=  0.000000000000000    
_NPROC_MPP=  1.000000000000000    
_NPROC_SMP=  6.000000000000000    
_NUMSTEP=  0.000000000000000    
_OPTCONVMX= 0.1197990897654271E-04
_OPTCONVRMS= 0.9549401380421439E-05
_OPTGRAD= 0.3303854495871300E-05
_OPTGRADMX= 0.3297643724139214E-05
_OPTGRADRMS= 0.2336177918084259E-05
!GMAXLAST= 0.3297643724139214E-05
!DMAXLAST= 0.1197990897654271E-04
!DELAST= 0.2498386351135196E-06
_OPTSTEP=  4.000000000000000    
_ORBITAL=  2100.200000000000    
_PI=  3.141592653589793    
_SEIG_MIN= 0.1696961224950151E-01
_SEWPROP=TRUE
_STATUS=  1.000000000000000    
_SYSTOT= 0.2600000000000000    
_VERSION=  2024001.000000000    
_WALLTOT=  1.020000000000000    
_ZPE= 0.2307880991695978E-01
_DATE=29-Sep-24
_LASTORB=0
_OUTPUT=/home/lme/Theoretische_Chemie/Nomodeco/pubchempy_integration/water.molpro/run/water_4.molpro/water_4.out
_PGROUP=Cs
_TIME=20:49:05
_LIBMOL=/usr/local/molpro/molpro_2024.1.0_sockets/lib/
_VIGRDC=  0.000000000000000    
!VIBCNT=  0.000000000000000    
!SURFREC=  0.000000000000000    
!XSURFREC=  0.000000000000000    
!XPOLYREC=  0.000000000000000    
!ROTREC=  0.000000000000000    
!POLYREC=  0.000000000000000    
!DIPREC=  0.000000000000000    
!DIP4DREC=  0.000000000000000    
!DIPROT=  0.000000000000000    
!DIP4DROT=  0.000000000000000    
!PTREC=  0.000000000000000    
!PT4DREC=  0.000000000000000    
!VSCFREC=  0.000000000000000    
!VCIREC=  0.000000000000000    
!PVCIREC=  0.000000000000000    
!VMP2REC=  0.000000000000000    
!VMCSCFREC=  0.000000000000000    
!VMRCIREC=  0.000000000000000    
!VIBSTATEREC=  0.000000000000000    
!VIBSTATECNT=  0.000000000000000    
!VIBINFO=  0.000000000000000    
!GAREC=  0.000000000000000    
!SCFORB=  21002.00000000000    
!DEFCORE=  1.000000000000000    
!SCORE=  0.000000000000000    
!NEWMOL=  0.000000000000000    
!NEWSYM=  0.000000000000000    
_SLFILES=slscratch
_NGSSTO=  9.000000000000000    
_SIN=SIN
_COS=COS
_TAN=TAN
_ACOS=ACOS
_ASIN=ASIN
_ATAN=ATAN
_COSH=COSH
_SINH=SINH
_TANH=TANH
_ABS=ABS
_MOD=MOD
_ERF=ERF
_REFC=REFC
_ERFC=ERFC
_HYPOT=HYPOT
_J0=J0
_J1=J1
_JN=JN
_GAMMA=GAMMA
_LGAMMA=LGAMMA
_Y0=Y0
_Y1=Y1
_YN=YN
_EXP=EXP
_LOG=LOG
_LOG10=LOG10
_SQRT=SQRT
_INT=INT
_NINT=NINT
_MAX=MAX
_MIN=MIN
_COSMO=  0.000000000000000    
_COSMOIT=  0.000000000000000    
_COSMOES=  0.000000000000000    
_COSMOEDS=  0.000000000000000    
_COSMOEC=  0.000000000000000    
_COSMOEDCORR=  0.000000000000000    
_FEPSI=  1.000000000000000    
_SL_IsMM=  0.000000000000000    
_SL_NSYM=  2.000000000000000    
_SL_System_BitSw=  0.000000000000000    
_SL_Unique_atoms=  0.000000000000000    
_SL_GRAD=  0.000000000000000    
_SL_MAXUPD_Hess=  5.000000000000000    
_SL_N_PRINT_COD=  5.000000000000000    
_SL_PRINT_CODES=  0.000000000000000    
_SL_BasType=  0.000000000000000    
_SL_Energy_Pred=  0.000000000000000    
_SL_New_Coords=  0.000000000000000    
_SL_Total_Nuclea=  0.000000000000000    
_SL_Highest_Mltp=  0.000000000000000    
_SL_Ref_Geom=  0.000000000000000    
_SL_Symmetry_ope=  1.000000000000000    
_SL_agrad=  0.000000000000000    
_SL_GrdMax=  0.000000000000000    
_SL_GrdNorm=  0.000000000000000    
_SL_GrdRMS=  0.000000000000000    
_SL_Hss_Q=  0.000000000000000    
_SL_Hss_X=  0.000000000000000    
_SL_BMxOld=  0.000000000000000    
_SL_KtB=  0.000000000000000    
_SL_TROld=  0.000000000000000    
_SL_No_of_Intern=  0.000000000000000    
_SL_Hess=  0.000000000000000    
_SL_K=  0.000000000000000    
!LATTICE= -1.000000000000000    
!NEWLATTICE=  0.000000000000000    
!LATGRAD_VAR=FALSE
!SEW_LATTICE=  1.000000000000000    
!AIC_ONEEL=  0.000000000000000    
!LOCAL=  0.000000000000000    
!SAVEDOM= -1.000000000000000    
!RESTDOM= -1.000000000000000    
!SAVEDOM_HF= -1.000000000000000    
!RESTDOM_HF= -1.000000000000000    
!HESSREC=  5300.200000000000    
!FREQREC=  5400.200000000000    
!NMODREC=  5450.200000000000    
!GTASKS=  0.000000000000000    
!HTASKS=  0.000000000000000    
!SAVEDOM_EOM= -1.000000000000000    
!RESTDOM_EOM= -1.000000000000000    
!GRADSTATE= -1.000000000000000    
!DEBUG=  0.000000000000000    
!CFIT_CPHF=  0.000000000000000    
!RDOMAUX_CPHF=  0.000000000000000    
!THRAO_CPHF= 0.1000000000000000E-11
!THRMO_CPHF= 0.1000000000000000E-11
!THROV_CPHF= 0.1000000000000000E-13
!THRSW_CPHF= 0.1000000000000000E-11
!THRPROD_CPHF= 0.1000000000000000E-11
!THRAOPR_CPHF= 0.1000000000000000E-11
!CFIT_SCFGRD=  0.000000000000000    
!RDOMAUX_SCFGRD=  0.000000000000000    
!THRAO_SCFGRD= 0.1000000000000000E-11
!THRMO_SCFGRD= 0.1000000000000000E-11
!THROV_SCFGRD= 0.1000000000000000E-13
!THRSW_SCFGRD= 0.1000000000000000E-11
!THRPROD_SCFGRD= 0.1000000000000000E-11
!THRAOPR_SCFGRD= 0.1000000000000000E-11
!LOCFIT_SCF=  0.000000000000000    
!LOCFIT_MP2=  0.000000000000000    
_RIDOM=  0.000000000000000    
!CC2_METHOD=  0.000000000000000    
_BASIS2006=FALSE
_SVDDEL= -1.000000000000000    
_SVDDELA= -1.000000000000000    
_SVDDELP= -1.000000000000000    
_SVDDELF= -1.000000000000000    
_SVDDELS= -1.000000000000000    
_SVDDEL_ABS= -1.000000000000000    
_SVDDELA_ABS= -1.000000000000000    
_SVDDELP_ABS= -1.000000000000000    
_SVDDELF_ABS= -1.000000000000000    
_SVDDELS_ABS= -1.000000000000000    
_MAXBASIS=  0.000000000000000    
!OPT_CONICAL=  0.000000000000000    
!CLEARSP_JGRID=  0.000000000000000    
_GRDHYBR=  0.000000000000000    
_STATEGRAD=  1.000000000000000    
_4EXT_NDISKS=  1.000000000000000    
!EMBEDFLAG=  1.000000000000000    
!EMBED=FALSE
!EMBED_F12=FALSE
!EMBEDNUC=  0.000000000000000    
_EMBEDENERGY=  0.000000000000000    
!EMBED_DFC=FALSE
!NUM_VOIDS=  0.000000000000000    
_IBODY=  0.000000000000000    
_EMBE_CORR=  0.000000000000000    
!EMBED_PROJ=FALSE
!EMB_PROJ_ZMU=  1000000.000000000    
!CORRECTION_HF=  0.000000000000000    
!EMBED_AORB=  0.000000000000000    
!EMBED_NACORR=  0.000000000000000    
!EMBED_MP2=FALSE
!EMBED_TRUNC_PERTURBATION=FALSE
!EMBED_FROZEN=  0.000000000000000    
!EMBED_ACTIVE=  0.000000000000000    
_CHANGE_BASIS=FALSE
_RESTORE_BASIS=FALSE
_FIX_EMBED_GUESS=FALSE
_EMBED_SCF=FALSE
_NEOBAS=FALSE
_NEOOVE=FALSE
_PRINEO=FALSE
_HUZINAGA_T=FALSE
_HUZINAGA_F=FALSE
_HUZINAGA=FALSE
_HUZINAGA_CORRECT=FALSE
!FASTLATGRAD=  1.000000000000000    
!FASTVLAMBDA= -1.000000000000000    
!IFORCE= -1.000000000000000    
!USESYM= -1.000000000000000    
_SINDEX=  0.000000000000000    
_AVDOM_OSV=  0.000000000000000    
_AVDOM_PNO=  0.000000000000000    
_AVDOM_PNOCC=  0.000000000000000    
_AVDOM_TNO=  0.000000000000000    
_AVDOM_TNOIT=  0.000000000000000    
_AVDOM_PAO=  0.000000000000000    
_AVDOM_LMO=  0.000000000000000    
_CC2OSV_FLAG=  0.000000000000000    
_EOMCCSD_CONV=FALSE
_TMADC2_FLAG=FALSE
_PROPADC2_FLAG=FALSE
_LEN_VirQ=  0.000000000000000    
_GRDCC2LR_FLAG=FALSE
_GRDADC2_FLAG=FALSE
_RO_VGLOBAL=  0.000000000000000    
_OPT=FALSE
_FREQ=FALSE
_HESS=FALSE
_CMRCC_callName=EMPTY
_CMRCC_callCount=  0.000000000000000    
_GECCO_CIROOT=  1.000000000000000    
_SYM_CATION=  2.000000000000000    
_MON_A=FALSE
_MON_B=FALSE
_MAXGEOM=  100.0000000000000    
!MAXGEOM=  100.0000000000000    
_NCORE=  0.000000000000000    
_NLARGECORE=  0.000000000000000    
GX1=  0.000000000000000    
GY1=-0.6377118096030178E-01
GZ1=  0.000000000000000    
GX2=  0.000000000000000    
GY2= 0.5060473296721855    
GZ2= 0.7488258480104382    
GX3=  0.000000000000000    
GY3= 0.5060473296721855    
GZ3=-0.7488258480104382    
O1X1=  0.000000000000000    
O1Y1=-0.1205100666589198    
O1Z1=  0.000000000000000    
H2X2=  0.000000000000000    
H2Y2= 0.9562908591786385    
H2Z2=  1.415075767780371    
H3X3=  0.000000000000000    
H3Y3= 0.9562908591786385    
H3Z3= -1.415075767780371    
[Atoms] Angs
O     1    8         0.0000000000       -0.0637711810        0.0000000000
H     2    1         0.0000000000        0.5060473297        0.7488258480
H     3    1         0.0000000000        0.5060473297       -0.7488258480
[GTO]
   1 0
 s    6  1.00
  0.8588500000D+04  0.1895150083D-02
  0.1297230000D+04  0.1438590063D-01
  0.2992960000D+03  0.7073200310D-01
  0.8737710000D+02  0.2400010105D+00
  0.2567890000D+02  0.5947970261D+00
  0.3740040000D+01  0.2808020123D+00
 s    3  1.00
  0.4211750000D+02  0.1138890124D+00
  0.9628370000D+01  0.9208111006D+00
  0.2853320000D+01 -0.3274470358D-02
 s    1  1.00
  0.9056610000D+00  0.1000000000D+01
 s    1  1.00
  0.2556110000D+00  0.1000000000D+01
 p    3  1.00
  0.4211750000D+02  0.3651139738D-01
  0.9628370000D+01  0.2371529830D+00
  0.2853320000D+01  0.8197019412D+00
 p    1  1.00
  0.9056610000D+00  0.1000000000D+01
 p    1  1.00
  0.2556110000D+00  0.1000000000D+01
 d    1  1.00
  0.1292000000D+01  0.1000000000D+01
  
   2 0
 s    3  1.00
  0.3386500000D+02  0.2549381454D-01
  0.5094790000D+01  0.1903731086D+00
  0.1158790000D+01  0.8521614860D+00
 s    1  1.00
  0.3258400000D+00  0.1000000000D+01
 s    1  1.00
  0.1027410000D+00  0.1000000000D+01
 p    1  1.00
  0.7500000000D+00  0.1000000000D+01
  
   3 0
 s    3  1.00
  0.3386500000D+02  0.2549381454D-01
  0.5094790000D+01  0.1903731086D+00
  0.1158790000D+01  0.8521614860D+00
 s    1  1.00
  0.3258400000D+00  0.1000000000D+01
 s    1  1.00
  0.1027410000D+00  0.1000000000D+01
 p    1  1.00
  0.7500000000D+00  0.1000000000D+01


[MO]
 Sym=      1.1
 Ene=     -20.5413
 Spin= Alpha
 Occup=    2.000000
1 0.55142989302463
2 0.47167849779833
3 0.005566602711526
4 -0.000465163493680
5 0.0
6 0.001785222710305
7 0.000000000000000
8 0.0
9 -0.000617652323495
10 0.000000000000000
11 0.0
12 0.000094627449229
13 0.000000000000000
14 0.000115378662924
15 -0.000017809866660
16 -0.000097568796264
17 0.0
18 0.0
19 0.000000000000000
20 0.000208611730656
21 0.000083188961879
22 0.000098883411370
23 0.0
24 -0.000010886929331
25 -0.000070287112777
26 0.000208611730656
27 0.000083188961880
28 0.000098883411370
29 0.0
30 -0.000010886929331
31 0.000070287112777
 Sym=      2.1
 Ene=      -1.3491
 Spin= Alpha
 Occup=    2.000000
1 -0.11335954016626
2 -0.18935716200922
3 0.53787734365870
4 0.37190453392478
5 0.0
6 0.038031298083126
7 -0.000000000000000
8 0.0
9 0.063144951253337
10 0.000000000000002
11 0.0
12 0.020779461819102
13 0.000000000000002
14 -0.008344511172742
15 0.002762293666324
16 0.005582217506418
17 0.0
18 0.0
19 0.000000000000001
20 0.096562573141716
21 0.081307883853561
22 -0.002674934680751
23 0.0
24 -0.014411960272980
25 -0.023857744278598
26 0.096562573141714
27 0.081307883853574
28 -0.002674934680760
29 0.0
30 -0.014411960272982
31 0.023857744278600
 Sym=      3.1
 Ene=      -0.7172
 Spin= Alpha
 Occup=    2.000000
1 0.000000000000000
2 0.000000000000000
3 -0.000000000000000
4 0.000000000000005
5 0.0
6 0.000000000000001
7 0.22737906875791
8 0.0
9 0.000000000000001
10 0.34886177590198
11 0.0
12 0.000000000000005
13 0.21178432616759
14 -0.000000000000000
15 0.000000000000000
16 0.000000000000000
17 0.0
18 0.0
19 0.029327229987188
20 0.15126546274054
21 0.21225549373826
22 0.054487544816152
23 0.0
24 -0.025670992636015
25 -0.018707187844926
26 -0.15126546274053
27 -0.21225549373828
28 -0.054487544816149
29 0.0
30 0.025670992636016
31 -0.018707187844928
 Sym=      4.1
 Ene=      -0.5729
 Spin= Alpha
 Occup=    2.000000
1 0.038140091585510
2 0.064860196237725
3 -0.19645676359476
4 -0.33484860805903
5 0.0
6 0.25569174782255
7 -0.000000000000001
8 0.0
9 0.37818685843121
10 -0.000000000000001
11 0.0
12 0.33999194318673
13 -0.000000000000003
14 -0.012876260349552
15 0.016985101958221
16 -0.004108841608669
17 0.0
18 0.0
19 -0.000000000000000
20 0.087465323172825
21 0.14600256101205
22 0.027263582697191
23 0.0
24 0.009565657312355
25 -0.029719095434643
26 0.087465323172828
27 0.14600256101205
28 0.027263582697200
29 0.0
30 0.009565657312356
31 0.029719095434641
 Sym=      1.2
 Ene=      -0.5007
 Spin= Alpha
 Occup=    2.000000
1 0.0
2 0.0
3 0.0
4 0.0
5 0.29169577995155
6 0.0
7 0.0
8 0.43668228241721
9 0.0
10 0.0
11 0.46587792028564
12 0.0
13 0.0
14 0.0
15 0.0
16 0.0
17 0.017140433680788
18 0.000000000000000
19 0.0
20 0.0
21 0.0
22 0.0
23 0.031532230611151
24 0.0
25 0.0
26 0.0
27 0.0
28 0.0
29 0.031532230611152
30 0.0
31 0.0
 Sym=      5.1
 Ene=       0.1526
 Spin= Alpha
 Occup=    0.000000
1 0.033502774366006
2 0.054636206330783
3 -0.10269999672728
4 -0.85277766450382
5 0.0
6 -0.071584832128115
7 0.000000000000004
8 0.0
9 -0.11395098973264
10 0.000000000000002
11 0.0
12 -0.19992339784756
13 0.000000000000010
14 0.005458388959696
15 -0.004560733361429
16 -0.000897655598267
17 0.0
18 0.0
19 -0.000000000000000
20 0.034136693778739
21 -0.068275349011035
22 0.84442406053105
23 0.0
24 -0.003810148877968
25 0.005125120019424
26 0.034136693778743
27 -0.068275349011086
28 0.84442406053121
29 0.0
30 -0.003810148877964
31 -0.005125120019427
 Sym=      6.1
 Ene=       0.2186
 Spin= Alpha
 Occup=    0.000000
1 0.000000000000002
2 0.000000000000002
3 -0.000000000000006
4 -0.000000000000007
5 0.0
6 -0.000000000000003
7 -0.12023558401546
8 0.0
9 0.000000000000000
10 -0.12746363723953
11 0.0
12 0.000000000000009
13 -0.49546846747239
14 -0.000000000000001
15 0.000000000000000
16 0.000000000000001
17 0.0
18 0.0
19 -0.005536346689980
20 0.023623952849708
21 -0.13011047759790
22 1.58003262922613
23 0.0
24 0.008184796273049
25 0.008852265458951
26 -0.023623952849703
27 0.13011047759784
28 -1.58003262922605
29 0.0
30 -0.008184796273043
31 0.008852265458940
 Sym=      7.1
 Ene=       0.5772
 Spin= Alpha
 Occup=    0.000000
1 0.000000000000002
2 0.000000000000004
3 -0.000000000000018
4 -0.000000000000048
5 0.0
6 -0.000000000000003
7 -0.12034088216557
8 0.0
9 -0.000000000000008
10 -0.18575151747401
11 0.0
12 -0.000000000000049
13 -1.17096364369389
14 0.000000000000000
15 -0.000000000000001
16 0.000000000000000
17 0.0
18 0.0
19 0.013019114089176
20 0.079808490612008
21 1.48644328806637
22 -0.72178504601985
23 0.0
24 0.002722996109125
25 -0.026218364014849
26 -0.079808490612010
27 -1.48644328806620
28 0.72178504601978
29 0.0
30 -0.002722996109134
31 -0.026218364014835
 Sym=      8.1
 Ene=       0.6207
 Spin= Alpha
 Occup=    0.000000
1 0.033596398476930
2 0.059028160451388
3 -0.13501013586977
4 -1.48864341429794
5 0.0
6 -0.096016756367458
7 0.000000000000004
8 0.0
9 -0.18558724024216
10 0.000000000000005
11 0.0
12 -1.08845241392192
13 0.000000000000039
14 -0.001401348744713
15 -0.011267994223415
16 0.012669342968128
17 0.0
18 0.0
19 -0.000000000000001
20 0.062656140304891
21 1.85072045494827
22 -0.60057552770286
23 0.0
24 -0.044616778495780
25 -0.036897894942320
26 0.062656140304909
27 1.85072045494837
28 -0.60057552770293
29 0.0
30 -0.044616778495777
31 0.036897894942321
 Sym=      9.1
 Ene=       0.9975
 Spin= Alpha
 Occup=    0.000000
1 -0.012908023559627
2 -0.024137172817678
3 0.046479319470632
4 0.95095977762346
5 0.0
6 -0.23503529091022
7 0.000000000000001
8 0.0
9 -0.73590220013977
10 0.000000000000009
11 0.0
12 1.56770142775205
13 -0.000000000000017
14 -0.013062682229333
15 -0.004579819190079
16 0.017642501419412
17 0.0
18 0.0
19 0.000000000000001
20 -0.033765171093861
21 -0.57477410315180
22 -0.11535568140177
23 0.0
24 0.099404955099047
25 0.15198466878342
26 -0.033765171093872
27 -0.57477410315179
28 -0.11535568140179
29 0.0
30 0.099404955099046
31 -0.15198466878342
 Sym=      2.2
 Ene=       1.0031
 Spin= Alpha
 Occup=    0.000000
1 0.0
2 0.0
3 0.0
4 0.0
5 -0.23940065123386
6 0.0
7 0.0
8 -0.83600700647386
9 0.0
10 0.0
11 1.15633090712877
12 0.0
13 0.0
14 0.0
15 0.0
16 0.0
17 -0.008395932112129
18 -0.000000000000000
19 0.0
20 0.0
21 0.0
22 0.0
23 -0.027705930289829
24 0.0
25 0.0
26 0.0
27 0.0
28 0.0
29 -0.027705930289830
30 0.0
31 0.0
 Sym=     10.1
 Ene=       1.1114
 Spin= Alpha
 Occup=    0.000000
1 -0.000000000000002
2 -0.000000000000004
3 0.000000000000027
4 -0.000000000000058
5 0.0
6 -0.000000000000002
7 -0.24104373411508
8 0.0
9 -0.000000000000013
10 -0.70500311760699
11 0.0
12 0.000000000000001
13 1.80249132406277
14 0.000000000000002
15 -0.000000000000000
16 -0.000000000000001
17 0.0
18 0.0
19 0.031834560785449
20 -0.019633792350223
21 -0.34715742595013
22 -0.80113412020566
23 0.0
24 0.14573686911583
25 0.17438965857614
26 0.019633792350219
27 0.34715742595016
28 0.80113412020567
29 0.0
30 -0.14573686911584
31 0.17438965857615
 Sym=     11.1
 Ene=       1.3105
 Spin= Alpha
 Occup=    0.000000
1 0.099742144798144
2 0.20421057505990
3 -1.48624426625044
4 3.19029309970544
5 0.0
6 -0.028033523284951
7 -0.000000000000003
8 0.0
9 0.17804710030982
10 -0.000000000000013
11 0.0
12 0.58780946525957
13 0.000000000000038
14 -0.035644149454026
15 0.028134669528717
16 0.007509479925309
17 0.0
18 0.0
19 -0.000000000000002
20 0.008823180453259
21 -0.88715982749395
22 -0.35674458453422
23 0.0
24 0.36902249002494
25 0.18388186160478
26 0.008823180453264
27 -0.88715982749394
28 -0.35674458453419
29 0.0
30 0.36902249002494
31 -0.18388186160478
 Sym=     12.1
 Ene=       1.4982
 Spin= Alpha
 Occup=    0.000000
1 -0.033436841008127
2 -0.069325660374270
3 0.58498107635315
4 -2.05780707748514
5 0.0
6 -0.014848579549189
7 0.000000000000002
8 0.0
9 -0.12068365710594
10 0.000000000000003
11 0.0
12 -1.24349563632322
13 -0.000000000000020
14 -0.008602042366516
15 0.11646224716765
16 -0.10786020480113
17 0.0
18 0.0
19 -0.000000000000001
20 -0.084222988242097
21 1.20386971128525
22 -0.029170802110722
23 0.0
24 0.42787860723824
25 -0.59810025436563
26 -0.084222988242087
27 1.20386971128522
28 -0.029170802110731
29 0.0
30 0.42787860723825
31 0.59810025436563
 Sym=      3.2
 Ene=       1.5159
 Spin= Alpha
 Occup=    0.000000
1 0.0
2 0.0
3 0.0
4 0.0
5 0.000000000000000
6 0.0
7 0.0
8 -0.000000000000000
9 0.0
10 0.0
11 -0.000000000000004
12 0.0
13 0.0
14 0.0
15 0.0
16 0.0
17 0.000000000000001
18 0.12196124668404
19 0.0
20 0.0
21 0.0
22 0.0
23 0.68970717079693
24 0.0
25 0.0
26 0.0
27 0.0
28 0.0
29 -0.68970717079692
30 0.0
31 0.0
 Sym=      4.2
 Ene=       1.7269
 Spin= Alpha
 Occup=    0.000000
1 0.0
2 0.0
3 0.0
4 0.0
5 -0.052895706433297
6 0.0
7 0.0
8 -0.075165987108097
9 0.0
10 0.0
11 -0.55154597134629
12 0.0
13 0.0
14 0.0
15 0.0
16 0.0
17 0.14547252747118
18 -0.000000000000001
19 0.0
20 0.0
21 0.0
22 0.0
23 0.77200363068063
24 0.0
25 0.0
26 0.0
27 0.0
28 0.0
29 0.77200363068064
30 0.0
31 0.0
 Sym=     13.1
 Ene=       1.9304
 Spin= Alpha
 Occup=    0.000000
1 -0.000000000000000
2 0.000000000000001
3 -0.000000000000005
4 -0.000000000000017
5 0.0
6 0.000000000000001
7 0.015159018604464
8 0.0
9 -0.000000000000005
10 0.027440614317439
11 0.0
12 -0.000000000000005
13 -0.94917661832864
14 0.000000000000002
15 -0.000000000000001
16 -0.000000000000000
17 0.0
18 0.0
19 -0.079138365214597
20 -0.19090963361148
21 0.78720682841502
22 -0.16050066877393
23 0.0
24 -0.65140224682150
25 0.48082208453660
26 0.19090963361147
27 -0.78720682841498
28 0.16050066877393
29 0.0
30 0.65140224682149
31 0.48082208453662
 Sym=     14.1
 Ene=       2.2775
 Spin= Alpha
 Occup=    0.000000
1 -0.000000000000000
2 -0.000000000000002
3 0.000000000000022
4 0.000000000000076
5 0.0
6 -0.000000000000007
7 -0.17652923072500
8 0.0
9 0.000000000000015
10 -0.46802228717359
11 0.0
12 0.000000000000034
13 0.027122681523580
14 -0.000000000000017
15 0.000000000000004
16 0.000000000000013
17 0.0
18 0.0
19 0.25259646301316
20 0.71315269509193
21 -0.74249279531119
22 0.54210957277679
23 0.0
24 -0.46723895558335
25 -0.24920977372336
26 -0.71315269509179
27 0.74249279531093
28 -0.54210957277673
29 0.0
30 0.46723895558339
31 -0.24920977372340
 Sym=     15.1
 Ene=       2.3979
 Spin= Alpha
 Occup=    0.000000
1 0.024145676712606
2 0.042089229332702
3 -0.14352300373839
4 0.41808842836903
5 0.0
6 -0.16064776676172
7 0.000000000000010
8 0.0
9 -0.15931414910780
10 0.000000000000058
11 0.0
12 0.32975153563668
13 0.000000000000017
14 -0.29203657866614
15 0.076449067009113
16 0.21558751165702
17 0.0
18 0.0
19 -0.000000000000009
20 0.94232360662700
21 -1.34183694492029
22 0.43146921062805
23 0.0
24 -0.033163312542470
25 -0.17345339282927
26 0.94232360662704
27 -1.34183694492026
28 0.43146921062809
29 0.0
30 -0.033163312542561
31 0.17345339282936
 Sym=     16.1
 Ene=       2.6102
 Spin= Alpha
 Occup=    0.000000
1 -0.060073611188763
2 -0.14044318683015
3 1.00828699277971
4 1.83750119771835
5 0.0
6 0.039618036036497
7 0.000000000000005
8 0.0
9 0.72087249833313
10 0.000000000000113
11 0.0
12 0.73333195576995
13 0.000000000000068
14 0.051514614742756
15 -0.047249136234510
16 -0.004265478508245
17 0.0
18 0.0
19 0.000000000000014
20 0.43167016858252
21 -1.90342329781741
22 0.21676427934530
23 0.0
24 0.67890032949429
25 0.96209374917157
26 0.43167016858241
27 -1.90342329781705
28 0.21676427934525
29 0.0
30 0.67890032949413
31 -0.96209374917136
 Sym=     17.1
 Ene=       2.7685
 Spin= Alpha
 Occup=    0.000000
1 -0.000000000000006
2 -0.000000000000014
3 0.000000000000101
4 0.000000000000208
5 0.0
6 -0.000000000000003
7 -0.015072536594592
8 0.0
9 0.000000000000069
10 -0.97024650510532
11 0.0
12 0.000000000000093
13 -0.73230691157936
14 -0.000000000000002
15 -0.000000000000005
16 0.000000000000007
17 0.0
18 0.0
19 -0.23827577916210
20 -0.72892173123404
21 2.13095568697753
22 -0.50209737301903
23 0.0
24 -0.68788965009161
25 -0.95024434927193
26 0.72892173123419
27 -2.13095568697802
28 0.50209737301910
29 0.0
30 0.68788965009175
31 -0.95024434927212
 Sym=      5.2
 Ene=       3.5053
 Spin= Alpha
 Occup=    0.000000
1 0.0
2 0.0
3 0.0
4 0.0
5 0.023843964358908
6 0.0
7 0.0
8 -0.009419979621502
9 0.0
10 0.0
11 0.27523013472015
12 0.0
13 0.0
14 0.0
15 0.0
16 0.0
17 1.03733686481051
18 0.000000000000004
19 0.0
20 0.0
21 0.0
22 0.0
23 -0.36683802586125
24 0.0
25 0.0
26 0.0
27 0.0
28 0.0
29 -0.36683802586125
30 0.0
31 0.0
 Sym=      6.2
 Ene=       3.5721
 Spin= Alpha
 Occup=    0.000000
1 0.0
2 0.0
3 0.0
4 0.0
5 -0.000000000000000
6 0.0
7 0.0
8 0.000000000000000
9 0.0
10 0.0
11 -0.000000000000001
12 0.0
13 0.0
14 0.0
15 0.0
16 0.0
17 -0.000000000000004
18 1.06006483120251
19 0.0
20 0.0
21 0.0
22 0.0
23 -0.35117597070054
24 0.0
25 0.0
26 0.0
27 0.0
28 0.0
29 0.35117597070054
30 0.0
31 0.0
 Sym=     18.1
 Ene=       3.7381
 Spin= Alpha
 Occup=    0.000000
1 0.002617686945128
2 0.005333988951459
3 0.029349065331235
4 -0.86146100667956
5 0.0
6 -0.059059435082017
7 0.000000000000001
8 0.0
9 -0.050537155230944
10 0.000000000000003
11 0.0
12 -0.67660959393208
13 0.000000000000003
14 0.47285462688001
15 -1.08347236180997
16 0.61061773492995
17 0.0
18 0.0
19 0.000000000000004
20 0.027082936748584
21 0.57234240047597
22 -0.028385275298686
23 0.0
24 0.23274540221264
25 -0.42413032627719
26 0.027082936748583
27 0.57234240047598
28 -0.028385275298692
29 0.0
30 0.23274540221263
31 0.42413032627719
 Sym=     19.1
 Ene=       4.0353
 Spin= Alpha
 Occup=    0.000000
1 -0.024613693350542
2 -0.049670163706834
3 0.18782962053013
4 2.00080182860233
5 0.0
6 0.31727566736615
7 -0.000000000000008
8 0.0
9 0.13208397046184
10 -0.000000000000003
11 0.0
12 0.89592252588751
13 -0.000000000000011
14 -0.99799025035902
15 0.048193290496948
16 0.94979695986207
17 0.0
18 0.0
19 -0.000000000000022
20 -0.35224868910260
21 -1.03747926915703
22 -0.059507231715745
23 0.0
24 0.48259670419236
25 0.56005829645112
26 -0.35224868910261
27 -1.03747926915704
28 -0.059507231715746
29 0.0
30 0.48259670419237
31 -0.56005829645114
 Sym=     20.1
 Ene=       4.2823
 Spin= Alpha
 Occup=    0.000000
1 -0.000000000000000
2 -0.000000000000001
3 0.000000000000002
4 0.000000000000060
5 0.0
6 0.000000000000007
7 0.46764953456522
8 0.0
9 0.000000000000003
10 -0.028051935643804
11 0.0
12 0.000000000000029
13 0.92184902063336
14 -0.000000000000021
15 0.000000000000005
16 0.000000000000016
17 0.0
18 0.0
19 1.14893938333676
20 -0.44147744799554
21 -0.48386930157464
22 -0.24465246936071
23 0.0
24 0.33994859848063
25 0.46732023698570
26 0.44147744799554
27 0.48386930157456
28 0.24465246936071
29 0.0
30 -0.33994859848061
31 0.46732023698566
 Sym=      7.2
 Ene=       5.3305
 Spin= Alpha
 Occup=    0.000000
1 0.0
2 0.0
3 0.0
4 0.0
5 1.27075925781205
6 0.0
7 0.0
8 -1.37564984677168
9 0.0
10 0.0
11 0.47597941453434
12 0.0
13 0.0
14 0.0
15 0.0
16 0.0
17 -0.033345474807543
18 0.000000000000000
19 0.0
20 0.0
21 0.0
22 0.0
23 0.065955685846310
24 0.0
25 0.0
26 0.0
27 0.0
28 0.0
29 0.065955685846310
30 0.0
31 0.0
 Sym=     21.1
 Ene=       5.7620
 Spin= Alpha
 Occup=    0.000000
1 0.024084720786316
2 0.045614672541480
3 -0.26313780743396
4 -1.05995186319498
5 0.0
6 1.25924842824979
7 0.000000000000001
8 0.0
9 -1.73379565465530
10 -0.000000000000003
11 0.0
12 0.078068927634730
13 -0.000000000000002
14 0.37370848189313
15 -0.097659434898165
16 -0.27604904699496
17 0.0
18 0.0
19 -0.000000000000002
20 0.30701880282453
21 0.52193499430807
22 0.014886474372527
23 0.0
24 -0.26710650315954
25 -0.48404225048230
26 0.30701880282453
27 0.52193499430806
28 0.014886474372522
29 0.0
30 -0.26710650315954
31 0.48404225048229
 Sym=     22.1
 Ene=       6.2580
 Spin= Alpha
 Occup=    0.000000
1 -0.000000000000000
2 -0.000000000000000
3 -0.000000000000000
4 0.000000000000006
5 0.0
6 0.000000000000002
7 -1.25457965926358
8 0.0
9 -0.000000000000001
10 2.05654229711858
11 0.0
12 0.000000000000005
13 -0.13086033546476
14 -0.000000000000001
15 0.000000000000000
16 0.000000000000001
17 0.0
18 0.0
19 0.67850251014044
20 -0.39809670730934
21 -0.51208355244894
22 0.14557793409841
23 0.0
24 0.47657311273198
25 0.54698641844208
26 0.39809670730933
27 0.51208355244893
28 -0.14557793409841
29 0.0
30 -0.47657311273198
31 0.54698641844207
 Sym=     23.1
 Ene=      51.5750
 Spin= Alpha
 Occup=    0.000000
1 -2.24731788786149
2 2.33737785489323
3 -0.27406502859017
4 0.056461724180483
5 0.0
6 0.019340034628993
7 -0.000000000000000
8 0.0
9 -0.077190077755274
10 -0.000000000000001
11 0.0
12 -0.015742061393803
13 0.000000000000000
14 0.026082173108254
15 -0.003369892651074
16 -0.022712280457180
17 0.0
18 0.0
19 -0.000000000000000
20 0.008747275700783
21 0.077727420540675
22 -0.031125747494789
23 0.0
24 -0.048152989334922
25 -0.065696713183667
26 0.008747275700784
27 0.077727420540673
28 -0.031125747494787
29 0.0
30 -0.048152989334922
31 0.065696713183667
 [FREQ]
      0.00
      0.00
      0.00
      0.00
      0.00
      0.00
   1750.94
   4142.11
   4237.38
 [FR-COORD]
O          0.0000000000       -0.1205100667        0.0000000000
H          0.0000000000        0.9562908592        1.4150757678
H          0.0000000000        0.9562908592       -1.4150757678
 [FR-NORM-COORD]
 Vibration                    1
          0.00000000          0.05992032          0.16445476